/*--------------------------------*- C++ -*----------------------------------*\
  =========                 |
  \\      /  F ield         | OpenFOAM: The Open Source CFD Toolbox
   \\    /   O peration     | Website:  https://openfoam.org
    \\  /    A nd           | Version:  11
     \\/     M anipulation  |
\*---------------------------------------------------------------------------*/
FoamFile
{
    format      ascii;
    class       volScalarField;
    location    "80";
    object      p;
}
// * * * * * * * * * * * * * * * * * * * * * * * * * * * * * * * * * * * * * //

dimensions      [0 2 -2 0 0 0 0];

internalField   nonuniform List<scalar> 
20983
(
-0.0014645
-0.00816217
-0.00378536
0.00165118
0.00213656
-0.0102693
0.00266821
-0.00140023
0.00499589
-0.00874558
0.00131196
-0.0011196
-0.00119888
-0.00186135
0.00257907
-0.000481234
-0.0015749
0.00029764
0.000152162
0.00170453
0.00131366
0.00526192
-0.000244533
0.000356882
0.0056935
0.00490996
0.00265487
0.00540871
0.0070967
0.0070446
0.0358303
0.00753235
0.00225625
0.00722875
0.00042595
-0.000785799
0.00444721
0.00547092
0.00386295
-0.000942911
0.00164906
0.00291902
0.00656565
0.00426171
-0.000278079
0.00664922
0.0041009
0.00377321
0.24411
0.242737
1.1396e-06
-0.00179861
0.00385533
0.00258366
-0.000341919
-0.000938178
0.000367614
-0.000900757
0.00266984
0.00522512
0.000990895
0.00479454
0.00163286
0.00446624
-0.00574609
-0.00254395
0.00570413
-0.00104578
3.60433e-05
0.00118566
0.00583032
0.00539762
0.00589278
0.0011656
0.00509045
0.116607
0.0725997
0.00380153
0.0577994
-0.00187326
-0.00117967
-0.000292854
-0.0140387
-0.136344
-0.000199507
0.00490252
0.00312211
-0.00667006
-0.0166041
0.000710202
0.00245065
-0.145684
-0.00830054
0.00335136
-0.00273009
-0.000858329
0.030542
-0.00317972
-0.000854145
-0.00533814
0.00481988
0.00374381
-0.00691886
0.00350753
-0.000400425
0.00316195
0.00108728
-0.00172461
-0.0358116
0.00573311
0.00416883
0.00108527
0.00561141
-0.0112851
-0.0209439
-0.00199029
-0.0544525
-0.0117145
-0.169324
0.0262651
0.00459322
-0.00958846
-0.0151839
-0.00220025
0.00372039
0.000884512
0.002055
0.00370457
0.00853742
0.00521757
0.00472253
-0.000332028
0.00413718
-0.00567886
0.00536814
0.00480435
0.00487146
-0.00183624
0.00846593
0.00374218
0.00671116
-0.0053997
0.00235559
0.000131575
0.00344263
0.00472322
0.00629445
0.00176843
-0.0262941
-0.0587231
0.0105723
0.00547285
-0.00506581
0.00212557
0.0256885
0.0396284
0.00155046
0.00372904
0.00401399
0.148978
0.00505967
0.00436567
0.000338101
1.25691e-05
-0.0155154
0.000962762
0.000428148
-0.000549838
0.000477645
0.000396326
0.00539514
-0.134387
0.0244772
-0.00594345
-0.0143556
6.83532e-07
-0.0783345
0.000254701
-0.95499
0.000729944
0.000201874
0.00495947
0.13589
0.0081588
0.00161632
-0.0301725
0.00460534
0.00268208
-0.000923267
-0.0145188
0.00446649
-0.00248879
0.00535431
0.00565261
0.00223058
0.00558447
-0.00382392
0.00704468
0.00565871
-0.00406339
0.00534778
-0.00613156
0.00132776
-0.000492695
0.00299759
0.000459382
0.000560306
0.00500413
-0.103922
-0.000274222
-4.48119e-05
0.0249078
0.0223774
0.00289894
-0.002569
0.00172903
0.00121182
0.00329378
0.00550814
0.00520067
-0.000889931
0.00411353
0.00546531
-0.00154103
0.00217876
-0.00216306
0.00241332
0.00505463
0.0019706
-0.00603589
0.00171537
0.00483361
0.00633498
-0.0211661
-0.169408
0.00273393
0.0109484
-0.00441714
-0.00559243
0.000303406
0.00400321
0.0054077
0.00339263
0.00433138
-0.00719541
0.00279916
0.00509633
-0.00146736
0.128747
0.056435
0.227074
0.0326711
0.0408281
0.000778795
-0.00414737
0.00432272
-0.00717367
0.00517724
0.00435314
-0.00453558
-0.0101348
-0.00107418
0.00587784
0.00527921
0.00263447
0.000276322
-0.019409
-0.00139693
0.00400898
0.0075186
0.00647248
0.0134137
0.00359786
0.00130402
0.0043547
0.00604469
0.00520691
-0.00136423
0.0064716
-0.00706731
0.00127172
0.0123077
0.00175967
-0.0714481
4.58267e-05
0.00534484
0.00463582
0.00471325
0.0045008
0.00527072
0.00134171
0.00649
0.00459125
0.0056876
-0.000453252
0.000254969
-0.0029998
-0.00399226
0.00264691
-0.0144756
0.00517727
0.00238013
0.00124179
0.00184861
0.00267874
-0.0190721
0.00243601
0.00220576
-0.0040764
-0.0241033
-0.000301516
0.0130905
0.0224113
0.0190627
-0.00242172
0.00325831
0.307248
-0.00585166
0.00346184
0.00362825
0.00545812
-0.0238964
-0.0173883
-0.000309356
0.00621673
0.00489955
0.0033761
0.00419317
-0.000403622
0.0128353
0.00559923
-0.0102896
0.00266015
0.00117398
0.000839411
-0.0102338
0.000350453
0.000388755
-0.00591859
-0.0780221
-0.00122047
0.000411596
0.000657705
-0.0087037
0.0939809
0.0376284
-0.00864604
0.00546709
0.00180761
-2.94322e-05
0.00124195
0.00111901
0.00307571
0.000709857
0.000522444
0.000341749
0.00442141
0.00604659
0.00384219
0.00379256
0.00450655
-0.0964145
0.000461986
0.00310766
0.00371057
-0.0114083
0.000337402
0.00580651
0.000182681
0.00570967
0.00806943
0.00411617
-0.00040691
-0.00661032
0.00091937
0.00498121
0.00434655
0.0147584
-0.0914141
-0.382387
-0.00492171
-0.000204151
-0.0214531
0.161416
0.000116762
0.000177043
0.00230437
-0.0107182
0.0369346
0.308009
-0.00457794
0.0205497
0.000488131
-0.0099955
0.000771057
0.00673195
0.000460595
0.0077049
-0.000100185
-0.00449218
0.00294873
0.00496598
0.0313969
0.0034887
0.0134718
0.00242887
0.00401691
-0.0439023
0.00156637
0.00249161
0.00103933
9.38499e-05
0.0132669
0.0242016
0.00077861
0.00368983
0.0151209
0.00145181
0.00270819
0.00444698
0.0266582
0.0228354
0.00243508
0.00618968
0.00288739
0.00556815
0.00191856
0.00285073
0.0157366
0.00488299
0.00167576
0.00103996
-0.00364197
0.00105906
0.00656841
0.00293952
-0.00546252
-0.0100145
-0.000331957
-0.0354845
0.00588264
-0.00235701
0.000235626
0.00428633
0.00621339
0.00155518
8.44909e-05
0.0022117
0.0016786
0.0043346
0.0300664
0.0200698
0.00724878
0.00229742
0.000472864
0.00154726
0.00289291
-0.00407333
0.00223731
0.00345558
0.00206605
-0.0399467
0.00345134
-0.0174279
0.00595486
-0.018227
-0.00105389
0.156876
0.00161086
0.168121
0.124728
0.123406
0.00357335
0.000144196
0.00582467
-0.00120343
-0.00275958
0.00464254
-0.0035143
0.00485352
1.36491e-05
-0.000523006
0.0300377
-0.0725628
0.0479281
-0.0269977
0.00304342
0.00116827
0.00319981
-0.0118259
0.00568243
0.00180849
-0.00970396
-0.00115358
-0.000182985
0.00170454
-4.62813e-05
0.0234721
-0.0119395
0.000847352
-0.00166532
-7.24409e-06
-0.000899608
0.00551108
0.00262156
0.0123606
-0.396972
0.00479947
0.00309618
0.0547325
0.00338575
0.00251454
0.00724096
0.00203569
0.00267209
0.000404737
0.00515672
0.00262212
0.00206333
0.00401909
-0.00013848
0.00260116
0.00120301
-0.00189392
0.0125393
0.00392084
-0.00174111
0.00048354
0.00139411
-0.00997167
0.00771315
-0.0312187
0.00613246
0.00564524
0.0126751
-0.0142209
0.00357137
0.00754796
0.00851145
0.00452054
0.00432533
0.0587307
0.0246747
0.00570704
-0.00136387
3.08119e-05
0.00594144
0.00788436
0.00550197
0.00237343
0.00404043
0.000523504
-0.0267704
-0.0036069
-0.0136817
0.0017882
0.00860605
0.0114982
0.00757449
0.00700547
0.00488374
0.00186787
0.00663557
-0.000220097
0.0010408
0.000614943
-0.00306626
0.00155678
-0.137438
-0.00143457
-0.0733814
-0.0158646
0.0126136
-0.0125424
-0.00137708
0.173845
0.231133
0.318627
-0.000315637
0.00471108
-0.000368347
-0.00248347
-0.0109189
-0.279849
0.00508897
-0.290856
-0.177496
0.00464405
0.00138071
0.000609814
0.000358449
0.00128519
0.00443693
0.00334758
0.00323323
-0.000180847
0.00422651
0.0035038
0.00355863
0.00367419
0.00215186
0.0044659
0.00454315
0.00551452
0.00282375
0.000434231
0.0060166
0.00434478
0.00335461
-0.0217566
-0.0129052
-0.0093479
-0.000502505
-0.000195872
-0.0016925
-0.00553593
0.00411969
0.00535337
-0.000657197
-0.0036505
0.00471689
0.00728146
0.00555771
-0.0158142
0.00521098
0.0234285
-0.000773482
0.0116521
0.0636257
-0.000944044
-0.00357694
0.00662164
0.0043805
-0.0300134
0.00534955
0.00655897
0.00616282
0.00114104
0.00491312
0.000809135
0.000726265
0.00138328
-0.0124221
-0.00244551
-0.00261678
-0.00439214
-0.000181955
-0.0162551
0.0094954
0.00226744
0.0035879
0.00512984
0.00215847
-0.232116
-0.27189
-0.0806504
0.00439828
0.00547914
0.00134503
0.00452688
0.00411415
0.00406064
-5.63468e-05
0.00177805
0.00439729
0.00360941
-0.0674598
7.38932e-05
0.00291595
0.00306463
0.00289268
0.00578997
0.00770909
0.00828407
0.00161083
0.00657163
0.00844407
0.0102109
0.00666819
0.00859484
0.0079484
0.0108388
0.00994097
0.00208982
-0.000727335
0.00138547
0.00355166
0.00374155
0.00330242
0.00244633
-0.00632181
-0.00288482
0.00488737
-0.00584363
-0.00038397
0.00418254
-0.00853784
-0.0161259
-0.000486859
0.00123204
0.000160318
0.0045933
-0.00145289
0.0127102
0.000151958
0.00134425
-0.180622
0.00128979
-0.128414
0.000766416
0.00480941
0.0050718
0.000855694
0.305232
0.00604462
0.00557346
0.316518
0.0028946
0.00886782
0.00407099
-0.097245
0.0644691
0.00561872
0.000699549
0.00630362
-0.000869776
0.00658004
0.00262128
0.00444168
0.00285023
0.00340334
0.000749266
0.0018063
0.00319653
0.0014883
0.00498671
-0.031486
0.00446418
-0.00277996
0.00341529
0.00502942
0.00252108
0.00658416
0.00401091
-0.00125516
0.0220515
0.0111473
0.0114352
0.00866632
-0.0197187
0.00039632
-0.00118762
0.000942409
-0.00303495
-0.000883352
-0.00123699
0.00560283
0.000935198
0.000759291
-0.00724191
0.00310302
0.00102047
0.00150259
0.0004914
0.00234044
0.00229787
0.0158654
0.0619911
0.0425938
0.0350309
0.0239056
0.00405527
0.00423194
-0.0223216
-0.0220328
-0.00412493
-0.179204
-0.0083413
0.00336451
-0.000449113
0.224044
0.00570034
0.00478315
-0.0515173
0.00385488
-0.0178118
0.00312755
0.00338968
0.00428396
-0.00100482
0.00507512
0.00374213
-0.0134832
0.000250589
0.00520077
-0.00193504
-0.0136117
0.00570147
0.00453876
0.00624141
0.000135238
-0.067006
0.00500659
0.00199295
0.00648911
0.0008771
0.00639136
-0.000318115
0.0414483
0.00263559
0.010057
0.00299662
0.0412917
0.0207732
0.0431156
-0.00189032
0.00375654
0.000642363
0.00192671
0.00362
-0.0127536
-0.000121583
-0.0175584
0.00114008
0.00427818
-0.056404
0.0718508
0.0395537
0.00306001
0.0237513
0.0290951
5.06345e-05
0.000381122
0.00686201
0.000138516
0.00275143
-0.013104
0.00196369
-0.00357204
0.0011025
0.00175815
0.00195633
0.1873
0.00862522
0.0367165
0.000791829
-0.00962524
0.000407921
0.000165266
-0.0099913
0.00460699
0.00363929
0.00376501
0.00335035
-0.00673998
0.013064
0.00571895
0.000753273
0.0062532
0.00440847
-0.00282496
0.00154506
0.00516665
0.00615175
0.00141441
0.00604234
0.0081853
0.000236789
0.0197994
0.0111563
0.00513633
0.0160363
0.0177433
0.00372347
-0.00138047
-0.00137531
0.000997153
0.00500498
-0.000669239
-0.023104
0.00643805
0.00415483
0.000986217
0.00553181
9.79605e-05
0.00194598
0.00107421
0.00259176
0.000889928
-0.000343464
-9.38389e-05
0.000181888
-0.00100644
0.00408233
-0.00683103
0.000868856
0.00230812
-0.00165446
-0.00476162
-0.000800802
0.0029377
0.000495418
0.00414155
0.00462566
-0.000738282
0.00490483
0.00205723
0.00176983
-0.0138144
0.00414418
-0.00999931
-0.00850618
0.00257472
0.0287613
0.0025087
0.034931
0.00529589
0.00263658
0.0043174
0.00158818
0.00455262
-0.0248086
0.00883811
-0.00802547
0.00274925
0.00416827
0.000535117
-0.0042035
-0.0150362
0.0169328
0.00887515
0.00502261
0.0321906
0.00813798
0.00915953
-0.00261127
0.000828614
-0.015449
0.00595859
0.000584273
0.00238837
0.00368771
0.00249207
-0.00214942
0.00238734
0.00423685
-0.000379329
0.00161594
-0.0133003
-0.000147394
0.00125709
-0.00303916
0.000994318
-0.00140769
0.00523015
0.000886172
-0.000544388
-0.00256002
0.000726326
0.00556761
0.0018631
0.000477015
-0.00295375
0.00616415
0.00169729
0.00219845
0.00427099
0.00131797
0.00866644
-0.013219
0.00109134
0.00466215
0.00223721
0.00254991
-0.0144336
0.00048396
0.00431519
0.000383753
0.00429824
0.00133846
0.00491747
-7.49182e-06
-0.0136218
0.00254134
0.00138973
-0.00173469
0.00588294
0.00563071
-0.0142829
0.0931026
0.000487687
0.00685292
-0.0015488
0.00391641
0.00148525
0.00718093
-0.000808306
0.00100857
0.000426736
0.000671351
0.00446298
0.00615749
0.00302103
-0.00260809
-0.00266174
0.000956008
-0.0079565
-0.00077321
0.00157612
-0.00750907
0.00561897
-0.000830247
0.00141342
0.0022889
0.0104779
0.00361626
-0.0102637
-0.000111577
0.000831444
0.00070669
-0.00627565
-0.0149112
0.000798172
0.000449657
-0.00226288
0.000704767
-0.000317217
0.000648545
0.00098048
0.000932743
-3.68411e-05
0.00793235
0.00836342
0.00821851
0.00490679
0.00351194
0.00370468
0.00675883
0.00648814
0.00284311
0.000208395
0.00693296
0.00138563
0.000916646
0.00415706
0.001932
0.00770956
-0.0151374
-0.00451643
0.0035894
0.00440462
0.00576805
0.00528723
0.00493402
0.00318989
0.000927551
0.00609323
0.00518394
0.00358947
0.00479591
0.000669313
-0.00103214
0.00181911
0.00180182
0.00129278
0.00140962
0.000894574
-0.00647867
0.00539572
0.00547134
0.00370336
-0.00969532
0.00388849
0.0026791
0.0024795
0.00147157
0.00549095
-0.000445846
0.00445623
0.00787753
0.00532642
0.000769161
0.00386029
0.00391414
0.00646551
0.00170048
0.00152449
0.00467535
0.000681972
0.0355036
-0.00862537
-0.00420574
-0.000826823
0.00176156
0.00697822
0.00501882
0.00411466
0.00161552
0.000619776
0.00102621
0.000643544
5.82485e-05
0.0119406
-0.0110327
0.00204185
0.0115471
0.0203694
0.00683129
0.0198254
0.0210951
0.000869323
0.00635905
0.00472082
0.00250759
0.00555358
0.00690211
0.000829363
0.000941807
0.00182831
-0.000380606
0.00483015
0.00474513
9.73397e-06
-0.000601454
0.00375037
0.00424327
0.00426676
-0.00224624
0.0016615
0.00553951
0.00505194
-0.492669
0.0263444
0.191712
0.0172257
0.0257558
0.0121575
-0.0229138
0.00445566
-0.00698889
-0.0290543
-0.00278532
0.000872905
0.0196847
0.000218829
5.41008e-05
0.000436849
0.000281727
0.000208937
-0.000388833
-0.00055871
0.00135656
0.00150387
0.00103836
0.00290776
0.00181393
0.00506518
0.00183965
0.00438427
0.00572395
0.00240441
0.0042816
0.0046582
0.00229952
0.00330584
0.00171041
0.00466714
0.00639818
0.00310456
0.00132841
0.00351591
0.0013943
0.00299803
0.00300517
-0.0172136
-9.03267e-05
0.000816969
0.000828109
0.00107763
0.00427982
0.000860835
-0.00622971
0.00620714
0.022675
0.0170856
0.00861475
0.0019186
0.121536
0.0125885
-0.297987
-0.417638
-0.189245
-0.0645222
-0.0764584
0.00398063
0.00213072
-0.000365462
0.00630584
-0.00583041
0.00497204
0.00577283
0.00578024
0.00180525
0.000395198
-0.005635
0.000207242
-0.0013001
0.00251777
0.00161278
-0.00153723
0.00231482
0.00269667
0.00410697
0.00387053
0.00695723
-0.00014727
0.00102774
0.000767351
-0.0127527
0.00520419
1.86533e-05
0.00285355
0.00141133
0.00619438
-0.00971718
-0.00193005
0.00175644
-0.00329423
0.000568342
0.000474231
-0.00363905
0.00547209
0.00425017
0.00021751
0.012785
0.0109507
0.00642127
0.00174872
0.00114667
0.0053254
0.00587452
0.00520214
0.000823508
0.000877378
0.00282529
0.00120563
0.000563591
0.000414318
0.00202623
-0.00144332
0.00476228
0.00133595
0.00214299
0.0043441
0.00085712
0.00608599
-0.00543652
-0.135609
0.0254644
-0.205328
0.371115
-0.507718
-0.0415976
-0.00117582
-0.000951246
-0.00323752
-0.0037502
-0.00966847
0.00082157
0.00651626
-0.00064248
0.0100815
0.0139814
0.00445336
0.00410308
0.0050154
-0.0153991
-0.010409
-0.00718956
0.00121645
0.00656951
0.0004675
0.00133902
0.00619284
0.00367916
0.00493094
-0.000303297
0.00514321
-0.0025577
0.00567429
-0.0299948
-0.00150202
0.00555381
-0.000387606
0.00401575
0.000923287
-0.00125505
0.00163405
0.0283828
0.0280987
0.00219932
0.007929
0.00417388
0.0015087
0.00394591
0.00301074
0.00420617
0.00281221
-0.00964275
0.00297437
0.00367139
0.0022786
0.000204383
0.00633227
0.00321261
0.00198621
-0.000633351
0.0057433
0.00134816
0.00048611
0.0012028
0.0270217
0.00128582
0.00441772
0.00493633
-0.00130553
0.0047142
0.00512457
0.006434
0.0030223
0.00364173
0.000925292
0.00366739
0.00291102
0.00100518
0.00397469
0.00131495
0.0040309
0.000733496
0.00584905
0.00403701
-0.00248765
0.00552761
0.00564695
0.00236072
0.000377657
0.0035543
-0.015475
0.0010968
0.00157926
0.00616295
0.00506965
0.000221192
0.00177394
0.00238246
0.000837863
0.000320523
0.00539145
0.00836757
-0.00400882
0.000521313
0.000748132
-0.000912688
0.00252975
-9.27954e-05
0.000555797
0.00324278
0.00150424
0.00579442
3.8442e-06
0.0313325
0.00533481
-0.00140504
0.00487862
0.0055701
0.000313085
-0.00302768
0.0103838
0.00509598
-0.00194397
0.00486845
0.000553207
0.0040449
-0.00110203
0.00622747
-0.00166868
0.00204788
0.00153651
0.00175507
0.00581201
0.0131925
0.0077919
0.0064666
-0.00700144
0.00508015
2.00748e-05
0.00488707
-0.00216138
0.00406845
0.0043976
0.00331001
0.00418562
0.00906511
0.0048308
0.00414553
0.00390909
0.000708205
-0.00108506
-0.000242844
0.00167606
0.00459521
0.000542748
0.00547819
-0.0103562
0.00240588
-0.0015054
0.00203843
0.000957991
0.00462606
0.00222682
0.00202059
0.00410468
0.00133901
-0.0043569
0.00845577
-2.61174e-05
0.0052358
0.00316796
0.00505534
0.0055384
0.00455777
0.0071241
0.00188434
0.000471023
-0.00779417
0.00460551
0.00574649
0.142575
0.00400573
0.000587137
0.000604354
0.00337808
0.00208112
0.00472346
0.0010917
-0.00111928
0.00456975
0.00196364
0.00499169
0.00463483
0.000750768
-0.00215083
0.00432321
0.00505076
0.0052858
0.00565247
0.00200348
-0.00550917
0.00370994
-0.131568
-0.12213
0.0544019
0.112821
-0.19219
-0.100325
0.00139481
-0.000457591
-0.00054347
0.000795611
-0.00248464
-0.00355423
0.00453857
0.0098389
-0.0119546
0.00257076
-3.78998e-06
0.00499483
0.0044673
0.00458221
0.00462014
0.000778389
0.00600055
0.00513901
0.00247114
0.00463573
0.00509242
0.00241199
0.00605056
0.00182455
0.00279966
0.0136707
-0.000874704
0.00402941
0.00439918
-0.00900327
0.00392037
0.00554089
-0.00028043
-0.000118766
0.00463149
0.00278916
0.00171387
-0.00938107
5.91428e-05
-0.00888842
-1.02312e-06
0.00160694
0.000528788
-0.00592391
0.00369587
0.0011878
0.00111238
0.00514648
-0.00106161
0.00546842
-0.00250323
0.00868643
0.0021905
0.00235664
0.00626163
0.000807772
0.00126534
0.00344309
-0.000293949
0.00169897
0.00591986
0.000163526
0.00143367
-0.0117306
-0.0197763
0.00552951
-0.000544838
0.00223681
0.00361266
0.00286937
0.00184818
0.152326
0.00501177
-0.00269377
0.00454908
0.00272893
0.00494357
0.00472759
0.00300471
0.000242842
0.00702331
0.000587097
0.00358459
0.00147839
-0.00219786
0.00610509
0.00389826
0.00202354
0.00237683
0.00162581
0.00123494
0.0131418
0.00107807
0.0140878
0.00368339
0.00137569
0.00167403
0.00817703
0.0051166
-0.00262421
0.00678826
0.00483637
0.00998779
0.00926092
0.00485158
0.00887962
0.00948914
0.0116896
0.0105704
0.0171387
0.00273733
0.000975309
0.000919293
0.00117215
0.00445759
0.000657104
0.000530503
0.00593557
0.00548443
0.00897743
0.00878822
-0.0250155
0.00598387
0.00727275
-7.55141e-05
0.00283328
-0.00221026
0.0043523
0.00616402
0.00419338
0.0022928
0.00287381
0.00347926
0.00323675
0.00135648
0.00261547
0.000674631
0.00485765
0.00256018
0.00380103
0.00371182
0.00513784
0.00115523
0.000831777
-0.012081
0.0107339
0.00140376
-0.000360285
0.00371705
0.00482796
-0.000432047
0.00216666
0.000855781
0.00495039
0.000702851
0.00325114
0.00042908
0.000162289
-0.000939639
0.00286445
0.00482816
0.00276873
0.00483482
0.00592567
0.000492424
-0.0043365
0.00429757
-0.00575937
-0.00602933
-0.0243862
-0.00105303
0.00293816
-0.000948925
-0.00086702
0.0180847
0.00423353
0.0041294
0.006595
-0.000425253
0.0109809
-0.00563272
0.00479785
-0.00156059
-0.0666166
-0.0584749
0.00454731
0.003372
0.000635122
0.00276855
0.000500082
-0.00142889
0.00795696
0.00540432
0.000846843
-0.00585016
-0.00133935
-0.00526784
-0.00456887
-0.0169073
-0.00916051
-0.0337677
-0.00828469
-0.0285348
0.000379398
0.000122018
-1.20121e-05
0.00034816
0.00559221
0.00602974
0.000883432
0.00153966
0.0041606
0.00441734
0.0325654
0.0245163
0.0145232
0.0221914
0.00261251
0.00537956
0.00306872
0.00531297
0.00486994
-0.000268319
0.00010158
-0.0199384
0.00513705
0.00142344
0.0266943
0.00675886
0.0148765
0.00367979
-0.0255905
0.000234447
0.00750184
0.00299972
0.005399
0.00060901
0.0045484
-0.0110668
9.13436e-05
-0.00129267
-0.000283387
0.000377389
0.102281
0.000970815
-3.77453e-05
0.00097595
-0.00646984
0.000115177
-0.0031047
-0.0153301
0.076996
0.00283332
0.000754643
0.00422836
0.000153696
-0.0112525
0.00629383
0.00574679
0.00440293
9.82466e-05
0.00498217
0.00534546
0.00206165
-0.00600092
0.0241494
0.00527118
0.00499694
0.00580597
0.00362243
-0.00222167
0.00271711
0.0068352
0.00882636
0.0108099
0.00686517
0.00884784
0.0160309
0.0256753
0.0207374
0.00245591
0.00207276
0.000821247
0.00436756
0.00171243
0.00497301
0.00351201
0.00332765
0.00453173
0.00405729
0.00424394
0.00505632
0.000698455
0.00396946
0.00558716
0.00579062
-0.00995983
0.00196811
0.00500611
0.000694283
0.00882772
0.0199313
0.0034962
0.00366101
0.00130086
-0.00326454
0.00383575
0.00437617
-0.065907
0.00726265
0.00486183
-0.515998
-0.853744
0.00568261
-0.00919907
0.00480008
0.00139866
0.00495508
0.00466133
0.00115059
0.00431972
0.00396028
0.00586207
0.000416903
0.00104732
0.00370643
-0.00170606
0.014651
0.0034494
-0.0331553
0.00482334
0.00412567
0.00270365
0.000925125
0.00200029
0.000994406
0.00319037
0.00518131
-0.000920943
-0.00860338
0.0102738
0.00455903
0.0036172
0.00498297
0.00542471
0.0366444
0.0557765
0.0166762
0.00718536
0.018685
-0.000366334
0.00353617
-0.000795643
0.00420069
-0.000660337
0.00484831
-0.000760673
0.00392238
0.000199629
0.00027764
0.000276551
-0.000204934
0.00596076
-0.000242161
2.8968e-05
0.00490858
0.00623128
0.000287928
-0.00190912
0.003948
0.00441714
0.00135261
0.00581756
0.00952804
0.00385646
0.00166429
0.00541149
0.00901849
0.00577797
0.00423789
0.00488126
0.00503047
0.0051463
-0.000176952
0.00409655
0.00718696
0.00370565
0.00326405
0.000243819
0.00279928
-0.00250477
0.00355638
0.00460355
-0.0031424
4.32014e-05
0.00320228
-0.0129194
-0.00516182
0.00480934
0.00428247
-0.00217544
-8.21976e-05
0.00224888
0.000278516
0.00134847
0.000492714
0.000688889
0.0062143
0.00502582
0.0362919
0.00128771
0.0344711
0.00136358
0.0312448
0.0250875
0.0147845
0.00989435
0.00289974
0.00157824
0.00231668
0.00198379
0.00124459
0.00426332
0.0031094
0.00402344
-0.00189318
0.00418845
0.00356751
0.00207212
0.00514732
0.00391688
0.00577113
0.00280472
0.00742077
0.00968425
0.00224
0.0031529
0.00535582
0.00273919
-0.00331851
0.0013791
0.00630821
-0.00332598
0.000982884
0.00173862
0.00154759
0.00139808
0.00329267
0.0034343
-0.00179567
0.00418341
-0.000323613
0.00590407
-3.7182e-05
0.00488001
0.0075627
0.00918774
0.00850614
-0.0104127
-0.0122328
0.00145707
0.00384518
0.00187963
-0.00372695
-0.0138675
0.00438609
0.00399309
0.00416834
0.00398993
0.00320815
0.00371424
0.00361673
0.00538081
0.0023124
0.0032931
0.00115657
0.00384133
0.0023553
0.00635745
0.00248149
0.000110177
0.00356517
0.0051022
0.00116603
0.0012505
0.000196219
0.00307092
-0.00376411
-0.000632008
0.00487783
0.000538734
0.00643543
0.00549884
0.00541731
0.00383523
0.00379218
0.00622437
0.001587
0.00263462
0.00368434
0.0023641
0.00253166
0.00648326
0.0004947
0.00292376
0.0013584
0.00398638
0.000267639
0.00451126
0.000510506
-0.000289307
0.00493355
0.000622816
-0.00229012
0.00717366
0.000939391
0.00123394
-0.00127052
-0.000418294
0.00604373
0.00392465
0.00151921
0.00635681
0.00532622
0.000775245
-0.000645336
-4.13747e-05
0.000143865
-0.000979362
-0.00469417
0.0024662
-0.00154782
0.00265171
-0.000723242
0.00453178
0.006386
0.00577873
0.0071206
-0.000829778
0.00420785
-0.0012164
0.0059324
0.00322032
0.00136869
-0.00304817
0.00639351
2.76108e-05
0.000132065
0.00417364
0.00178892
-0.00460728
0.0100867
0.00629849
-0.00254782
0.0030011
-0.00485008
0.0037263
0.0030354
0.00217687
0.00212329
0.00239929
0.00191431
0.00208942
0.000412787
0.00460435
0.00376732
-0.0134241
0.00540863
0.00600343
0.00601013
0.0060014
0.00601582
-0.000705883
0.00611334
0.00608938
-0.00184013
0.000157197
-0.00011149
0.0065806
0.00135442
0.00115185
0.000390163
0.00582674
0.00831651
0.00290874
-0.00292648
-0.0110288
0.00438265
0.00586933
0.00218834
-0.0400529
0.0136316
0.00364968
-0.0682717
0.00344533
0.0185996
-0.068265
0.000932658
0.00551191
-0.000952869
0.00767654
-0.00152304
0.0056513
0.010293
0.000601923
0.00663168
0.000715291
-0.000866801
0.00354028
0.000870015
-0.000933782
0.00411496
0.00410306
0.00473711
-0.00120455
-0.00541744
0.00680867
0.0071321
-0.000776007
-0.000252137
0.00171509
0.0138305
0.00213533
0.0164188
0.0134851
0.0097786
0.00360299
0.00830231
0.001706
0.0200665
0.0372881
0.0285706
0.0408807
0.00907544
0.0376808
0.00400318
-0.000978287
0.00499837
-0.000117062
-0.000885942
0.00140251
0.0056431
-8.94374e-05
0.000436744
0.00382247
-0.000833293
0.00741241
-0.0169456
0.00163218
-0.000308253
0.000791081
0.00235498
-0.00177955
-0.00228589
0.000447298
0.00476134
0.000301494
0.00287491
0.0452091
0.0395539
-0.000320626
0.0676654
-0.000904886
0.00411958
0.00607235
-0.00228238
-0.0036642
0.000641265
-0.00577398
0.00426219
-0.000210331
0.00415745
-0.00269446
0.00627419
-0.0378889
-0.0666158
-0.0875273
0.0160667
-0.00582915
-0.136046
-0.0140907
0.00372998
0.00541884
0.00446965
5.61415e-05
6.7858e-05
0.00492216
0.00575463
0.00278328
0.00501855
0.00587544
-0.000144318
-0.00205085
-0.00146992
-0.00340299
-0.00396824
8.99779e-05
-0.00557198
0.00406741
0.00386758
0.00154529
-0.000195224
-0.00530733
0.000748925
-0.011795
0.0048068
0.00178389
-6.39355e-05
0.00311576
0.00176375
-0.00886079
0.00745523
-0.00148411
-0.0154114
-0.00036376
0.00134089
0.010547
0.00199294
0.0128045
5.797e-05
9.01442e-05
0.00509915
0.000874527
-0.00199667
0.00243538
0.00455385
0.00354545
0.00527348
-0.0438952
-0.0148125
0.00254913
0.00322812
0.00496719
0.00539156
0.00213441
0.0047424
0.00384514
0.142269
0.147545
0.149541
0.100427
0.0376614
0.000158183
0.126151
0.00261279
0.0134956
0.00677557
0.00308009
0.00503304
0.00587802
0.00290138
0.00537214
0.00112117
0.00119169
0.00140314
0.000526531
0.00193881
0.00482794
0.00386719
-0.00146572
0.00336174
0.00445218
0.0103722
0.00322578
0.00362987
0.00418131
6.93704e-05
0.00681899
0.00263795
0.00495268
0.00379904
0.00595407
0.00327547
0.00506888
0.00343341
-0.0138171
0.0301309
0.016283
0.00137135
-0.00159217
-0.000731365
0.00407794
-0.000932046
-0.00855151
0.00469445
0.00470836
0.00145859
0.00554857
5.87346e-05
0.00377337
0.00422867
0.00176705
0.00338568
-0.00224907
0.00564337
0.00430559
0.0153151
0.00105325
0.0036476
0.00663624
0.00805331
0.00513084
-0.00189183
0.00262335
0.000865419
-0.000129436
0.0132533
0.0184596
0.00103521
-0.00013169
0.0112484
0.00431097
-0.000303452
-0.00143383
0.078149
0.0016621
0.000260298
0.00683041
0.021095
0.0125423
0.0245364
0.0243459
-0.000279129
-9.20679e-05
0.0126574
-0.000730498
0.00157552
0.00540314
0.00487814
0.00110402
0.00630126
0.00998012
0.00525863
0.0106256
0.00290458
0.0219642
0.00308435
0.00558215
0.00476657
0.0171678
0.226709
0.113765
0.217174
0.173898
0.178493
0.152541
0.110371
0.0893876
0.155777
0.00649698
0.00211347
0.00191886
-0.0161264
0.00470931
0.0057019
0.00658568
-0.00611093
0.0043474
0.00303118
0.000420502
0.00435283
0.00425903
0.00683383
0.00274105
0.00233758
0.00454443
0.00322606
0.0069113
0.00430279
-0.00227169
0.00118331
0.00290214
0.000157044
0.00114742
-0.00425642
0.00417831
0.0046131
0.00129542
0.00540491
-0.00148537
-0.000651219
0.00164916
0.00637692
0.00464477
0.00401284
-9.3883e-05
0.00465373
0.00541413
0.00536806
0.0289059
-0.0593053
0.00538907
0.0247488
0.0235191
0.0012945
0.0119985
0.0096093
0.0176467
0.0011508
0.00306975
0.00510038
0.000820845
0.0123652
6.73266e-05
-0.00146328
-0.000124747
0.031811
-0.0111098
0.0291754
-0.0162685
-0.022032
0.0305393
0.00344164
0.0303845
0.00669097
0.00703446
0.00674821
-0.000655659
0.00588621
-0.000200501
4.56786e-05
0.00186172
-0.00118932
2.4801e-05
0.00434197
-0.0179412
-0.0016149
0.000578817
0.00242557
0.00076826
0.00297728
-0.000305083
0.00457747
0.000337507
-0.00036424
0.00515419
-0.00642756
0.00464356
0.00474331
0.000734238
0.00372402
0.000222587
0.000479052
0.00410577
0.00135075
0.00443596
0.0016352
0.00526606
0.000251916
0.00265289
-0.00036407
0.000443881
-0.0015528
0.00527775
0.00134533
0.00504642
7.90777e-05
0.00506625
0.00836479
0.00289435
0.00408609
-0.000881883
0.00857851
0.00183687
0.00323051
-0.00172806
0.0105407
0.00409362
0.00511274
0.00291535
-0.0185894
-0.0157784
-5.7929e-05
0.00241442
-0.0175074
-7.95373e-05
0.0289988
-0.0195247
0.0246856
0.0002378
0.00174283
0.00219485
0.00179549
0.00197171
0.00650714
0.00263885
-0.000163685
0.00341404
0.00658755
-0.00266928
-0.000759936
0.000213691
5.02004e-05
0.00190511
0.0026834
0.00427114
-0.00526908
0.00173557
0.00367929
0.000630066
0.00403238
-0.0263042
0.00744331
-0.00239357
0.00438284
0.00126246
0.00233429
0.00459461
-0.0159673
0.0051908
0.0105787
0.00360615
-7.43465e-05
-0.0104166
0.000210508
0.00563752
0.00126956
-0.0102447
0.00598745
0.00522244
0.00697511
0.0167276
0.00356231
4.73181e-05
0.00464489
-0.00434616
0.000216571
0.0446974
-0.0158878
0.0174849
0.0204448
0.0165155
0.022485
0.0101655
0.00871824
-0.00234909
0.00084086
0.00432066
0.00278751
0.00748966
0.000836504
0.00326149
0.00394754
0.00775548
0.000735892
-0.00107138
0.00164319
-0.0134786
0.000279994
-0.0104978
-0.00581789
0.0087241
-0.017033
0.000637802
-0.00956994
-0.000629943
0.00617964
-0.000402849
0.00252948
-0.00127487
0.00537885
-0.00209686
-0.00293454
0.00046679
0.00561247
0.00637959
0.00338318
0.00368092
0.000574149
0.00121235
0.00114914
0.00154927
0.020132
-0.000719489
0.000932186
0.00459301
0.00444112
0.00250749
0.00120796
0.00383231
0.00699898
-0.00803744
-0.0681121
0.00596481
0.00160974
-0.000712083
-0.000209644
0.000634958
0.00468848
0.00396013
0.000729153
0.00644461
0.0037464
0.0128044
-0.137038
0.00654269
0.00161208
-0.000972363
-0.000757425
0.00310637
-0.000941317
0.000720323
0.00379224
0.000771965
4.77994e-05
0.000792137
0.000543959
-0.00615913
0.00377486
0.00766526
0.00170986
-0.000478609
4.72599e-05
0.000132775
0.0056277
0.00138473
0.0275671
0.00166435
-0.000511302
0.0025826
0.00283788
0.00591456
0.00253784
0.00509655
-0.0120342
-1.93016e-07
0.00295594
0.00522595
0.00370956
0.00820474
0.00413977
-0.000431694
0.00508971
0.000705188
0.00362664
0.00370225
0.00178691
0.00612651
0.00419773
0.000733268
0.000725057
0.00506197
0.00467173
-0.0048631
0.0331401
-0.00541042
0.00551333
0.00446622
-0.00105108
0.00515321
0.00320341
-0.00440062
-0.000494965
0.000550243
-0.00171524
-0.0130002
0.000146885
0.0317684
0.00519644
-0.000541605
0.000692575
-0.00667048
-0.00185108
-0.00408708
-0.00426165
-0.00307638
0.00625619
0.00203672
-0.00752501