/*--------------------------------*- C++ -*----------------------------------*\
  =========                 |
  \\      /  F ield         | OpenFOAM: The Open Source CFD Toolbox
   \\    /   O peration     | Website:  https://openfoam.org
    \\  /    A nd           | Version:  11
     \\/     M anipulation  |
\*---------------------------------------------------------------------------*/
FoamFile
{
    format      ascii;
    class       surfaceScalarField;
    location    "80";
    object      phi;
}
// * * * * * * * * * * * * * * * * * * * * * * * * * * * * * * * * * * * * * //

dimensions      [0 3 -1 0 0 0 0];

internalField   nonuniform List<scalar> 
37779
(
0.0372647
-0.0495472
-0.0327151
0.0450353
-0.129189
0.151891
0.0900377
-0.112731
-0.0671418
-0.0761221
0.0358538
0.107419
-0.022667
-0.00688153
0.0200132
0.00953595
-0.0379043
0.069534
-0.16084
0.0676225
-0.141788
0.0103451
0.0637984
0.0051291
-0.0168335
0.0206932
-0.00898594
0.00190848
-0.00942801
-0.0118114
0.0193324
0.0124532
0.00793205
0.00584235
-0.0262473
0.00192597
0.0111108
0.00186825
-0.0149068
-0.00311535
-0.0670226
0.0712083
-0.00106919
0.00980988
-0.0152076
-0.000588261
0.00598499
-0.00634211
-0.00861034
0.0522282
0.0436246
-0.0365482
0.0662337
-0.0732413
0.0023074
0.00418763
-0.00910252
0.00262769
0.0156653
0.0583896
0.00447237
-0.0217217
-0.0718115
0.089064
0.00537816
-0.00294044
-0.01583
0.0133997
0.0181448
0.0288335
-0.0224878
-0.0244743
0.0256705
0.0227935
-0.0266976
-0.0217686
-0.0444024
-0.0388355
-0.0183993
0.101665
-0.00662044
-0.0099453
-0.0124001
0.0289106
0.0845689
-0.0261012
-0.0232972
-0.0350997
-0.0622406
-0.0634226
0.0666096
0.059058
-0.0166295
0.0224561
-0.0441382
-0.0304014
0.0499383
0.0246012
-0.00749113
0.00527527
0.00735311
-0.00257805
-0.00210831
-0.00030805
0.00499349
-0.00543324
-0.00054382
0.00339853
-0.00311599
-0.00192679
0.00293481
-0.0164676
0.0335144
0.023399
-0.00394721
-0.00460137
-0.0140807
-0.019638
0.00462065
0.0290975
0.0055826
-0.0129302
0.00340096
0.00501853
-0.0498809
0.0477272
-0.00285633
0.0361303
-0.0182721
0.0187245
-0.0365684
-0.00190554
0.000752471
-0.00879829
0.0493133
0.0263459
-0.0464981
-0.0291532
-0.0265211
0.0395318
-0.0261027
0.0130933
0.0380632
0.000800661
-0.0027243
0.000753745
0.0333534
-0.00843996
-0.26199
0.0653836
0.0919092
0.104705
-0.0144048
0.0208243
0.0633379
-0.0697544
-0.0249771
0.00151965
0.00297812
0.0204842
-0.0970629
0.0720881
0.0344628
-0.00945242
0.00382726
-0.107174
0.0889545
-0.0145628
0.0146695
0.00573335
-0.00580917
-0.0144279
0.00494278
0.00216844
0.00731387
-0.00113675
0.00219091
0.00612009
0.00100916
0.00188741
-0.00403339
0.0187532
0.0068983
0.00151022
-0.0271194
0.117632
-0.158646
0.101714
-0.0605598
-0.0203291
0.042577
-0.0599002
0.0376504
-0.0315752
0.0242693
0.00106614
0.00712104
0.027917
-0.0244029
-0.00739527
0.0670394
-0.0352443
0.000144381
0.00635677
-0.00112583
-0.00340321
0.0194777
0.022
0.0296943
0.0341788
-0.0515891
-0.0122777
0.00677821
0.00506878
-0.00827816
-0.00356555
-0.0588871
0.0487721
0.00518758
0.00493272
0.112686
-0.0336187
-0.0528901
-0.0261583
0.0138943
-0.0137686
-0.0164937
-0.0153008
0.04322
-0.0114287
0.00520589
-0.0339421
-0.0399858
0.068733
0.00492302
-0.0136956
0.0167407
-0.00791909
-0.0384888
-0.00928627
0.0267046
0.0210719
0.018162
-0.0207711
-0.000790948
0.0514442
-0.0525729
-0.025957
0.0270911
0.0340049
-0.0478183
0.00504642
0.00876652
0.039056
0.022079
-0.0118195
0.0256799
-0.0191345
-0.0204533
0.0139116
-0.0165036
0.0242047
-0.0298346
0.0221304
0.0273282
0.0299424
0.00123526
-0.058504
0.0712392
-0.0227658
-0.0930923
0.0446167
-0.0189284
0.00930331
0.0229517
-0.0133281
-0.0385676
0.0231849
-0.00354575
-0.0191124
0.0425377
-0.0130986
-0.0103329
0.0335681
0.0172984
-0.0165418
0.0244874
-0.0954147
0.0348497
0.0361513
0.02377
-0.0511568
-0.00529247
-0.000863552
0.0274898
-0.0113206
-0.0152993
0.0523582
0.00603953
-0.0289263
-0.0294396
-0.124253
-0.085315
0.0885406
0.0161032
-0.0679696
0.0523028
-0.000434461
0.0181535
-0.0312358
-0.00244531
0.0155344
0.0606303
-0.06219
-0.00030222
0.00185995
-0.036162
0.0042808
0.0338076
-0.0998655
-0.0711915
0.115926
-0.0163147
0.0167898
0.0245378
-0.0250218
-0.105507
0.0360462
0.0603549
0.00911108
-0.0234218
0.167757
-0.0664531
-0.077878
0.0430372
-0.0148561
-0.0229692
0.0123741
-0.00390289
-0.00764444
-0.000827046
-0.0354459
0.0696784
0.0234624
-0.0576959
0.0221699
-0.00378904
-0.000577406
0.0228918
-0.0185257
-0.108062
0.0466047
-0.00569523
0.0364519
-0.0519456
0.0428512
-0.0552634
-0.0934056
0.0440289
0.104652
-0.00678259
-0.00948899
-0.00464548
0.0209158
-0.016762
0.00829757
-0.0180546
-0.0336858
0.193845
-0.0926006
-0.0173789
0.111589
-0.0349988
-0.0272928
0.00454657
0.00653671
0.0162772
0.00872952
-0.0129866
0.00652907
-0.00226782
-0.0212741
0.121748
-0.0500444
0.0674853
-0.0176024
-0.00622728
-0.0855064
-0.0375915
0.0890012
0.00937725
0.0207994
0.013018
-0.043188
0.0163223
0.000808592
0.00454228
-0.0216706
0.024194
-0.0393339
-0.00602969
0.0211664
-0.0182882
0.0146223
0.0293492
0.000100866
0.0178916
-0.0341986
0.0162044
0.0199329
0.0390329
-0.0588595
-0.0255846
-0.0950403
0.0252344
-0.0547353
0.0777766
-0.00514882
-0.0653837
0.0305907
0.0471869
-0.0733263
0.0623284
-0.0805123
0.00789728
-0.0220467
0.0073637
0.00507037
0.0060543
-0.00757105
-0.0035547
-0.0067979
0.0252673
0.00206379
-0.0191709
0.0231603
-0.00135411
0.00584288
0.0218732
-0.0263658
-0.00117309
-0.0701055
0.00903996
-0.00065155
0.0341981
-0.00846882
-0.0250755
-0.0104782
0.0589527
0.00978967
-0.0582669
0.0270946
-0.0061807
-0.0179047
-0.00301166
0.0715103
-0.00835983
-0.0426578
0.0119932
0.00235914
-0.0118443
-0.0325991
-0.0194548
-0.0449816
0.0302668
-0.0450898
0.0659949
-0.0511725
-0.0576034
-0.0574664
-0.0266179
0.0174743
-0.0226657
0.0189665
-0.0137804
-0.0728931
0.0328898
0.081319
-0.0413171
0.0115285
0.0480238
-0.0750695
0.0155058
-0.0494102
0.0318517
0.0158553
-0.0468308
0.0468158
-0.0158427
-0.0031995
0.00283797
-0.00382156
0.00418355
-0.0161329
0.00194591
0.0109877
0.0913844
-0.0338212
-0.081556
0.0240105
0.0316119
0.0561582
-0.113072
0.0253462
-0.00617677
-0.000219279
0.00617126
0.000204726
0.0452593
-0.0525178
-0.0118586
0.00187566
0.0674949
-0.05289
-0.016477
0.0140761
0.000913241
-0.002747
-0.0122674
-0.0106822
0.0123876
0.0115434
-0.0132493
-0.0226635
0.0133966
-0.00141579
0.0105913
0.00808242
0.0350937
-0.0600877
-0.00154573
0.0265399
-0.01946
-0.0404094
0.0213815
0.000578309
-0.0300827
-0.025669
0.115653
-0.0802174
-0.00385695
0.00188287
-0.0026547
-0.00401574
0.00478477
-0.00647833
0.0126267
-0.0042663
-0.0122671
0.00663773
-0.0486166
0.0542487
0.0105139
0.0282625
-0.0335696
-0.00521079
0.0195659
0.00637418
-0.0164503
-0.00944605
-0.180677
0.0530937
0.0634015
0.0637982
0.0378769
-0.0350785
-0.0228941
0.0200971
0.0666419
0.0469981
-0.0424006
0.00254319
0.00478744
-0.00354421
-0.00378667
0.00412488
-0.00224716
0.00066532
-0.0208893
-0.138582
-0.00102625
-0.00120639
0.0070205
0.00810496
0.0038228
-0.00780305
-0.0206546
-0.00847316
0.029177
-2.99247e-05
0.00570589
0.0013727
0.000697722
0.00018572
0.00462
-0.00550341
-0.016049
0.00491978
-0.00130646
0.012422
0.00257699
-0.00741396
-0.00878038
-0.00672625
0.0031887
0.00611522
0.00132729
-0.00949144
0.00143795
0.0569721
-0.0545886
-0.0077428
0.00536079
-0.0149206
-0.00807309
-0.0404254
-0.0127097
-0.0480276
0.0221293
-0.119203
0.0219974
-0.00320402
0.100415
-0.0161151
-0.0125387
0.00935856
0.0786894
0.018104
-0.0977657
0.000975676
0.0754704
-0.00578269
-0.00319356
-0.0664921
0.0168251
-0.157814
0.126907
-0.342038
0.160977
-2.4416e-05
0.0168014
0.0135694
-0.00327244
-0.0457698
0.0387924
0.00724441
-0.000268606
0.256301
0.13984
-0.209705
-0.18646
0.012565
0.00102049
-0.000440429
-0.0131472
-0.0150035
-0.0167023
0.00402656
0.027678
-0.0121431
0.0129292
-0.000636217
-0.0103283
0.0634116
0.00475272
-0.0136591
0.00443287
0.00447625
0.0277965
-0.0694159
0.00513119
0.0106572
-0.0111658
-0.00148212
0.0019738
0.0365186
-0.0262783
-0.0388053
0.0285649
0.0463449
0.0153933
-0.00830538
-0.0534217
0.00301584
0.000323972
0.0147896
0.0221678
-0.0312421
0.00491564
0.00415805
-0.0658302
0.0463309
0.0224592
-0.00296041
0.00855014
0.00935536
0.00426187
0.0127874
-0.00280431
-0.001883
-0.00810028
-0.0430246
0.0192162
0.00618585
0.0176206
0.00795734
0.00266378
-0.00238609
0.00582311
-0.00610006
0.00324188
-0.00338172
0.0200235
0.000894349
-0.0123683
0.0159909
-0.0471466
0.0133403
0.0178075
0.0499579
-0.00528382
-0.0319566
-0.0126781
0.0723588
-0.0632242
-0.0106664
0.00155806
-0.222497
-0.0665249
0.184893
0.0408711
0.0584335
-0.0535671
-0.0457376
0.00779784
0.0150815
-0.0728153
0.0499504
-0.000971033
-0.00161073
0.00702671
-0.00444459
0.0419143
-0.00740594
0.0359239
0.0127325
-0.0189443
-0.00479417
0.020728
-0.00563374
-0.0103547
-0.0176252
-0.0157811
0.0451431
-0.0117075
-0.0233465
0.0932909
-0.0319292
-0.0380139
0.00641629
-0.0386119
0.0246556
0.00753366
-0.000664772
-0.0647806
-0.0074462
0.0110632
0.0487815
0.00846767
-0.0683119
-0.130429
0.106725
0.0225325
0.0156859
-0.0121942
-0.0222769
0.0187837
-0.0235632
0.0392171
0.0233988
0.0212386
-0.0330181
0.00890707
0.00287321
0.0315714
-0.00746878
-0.00286339
-0.0224478
0.00761467
0.0119068
-0.00210802
-0.00978815
-8.9192e-06
0.024158
0.0111882
-0.00377495
-0.000822779
-0.0616282
0.0688039
-0.00635494
-0.0794614
0.125373
-0.0452278
-0.0576818
0.0459166
-0.0638917
0.00488307
0.0148714
-0.0128772
-0.00377586
0.021114
-0.00446848
0.00828541
-0.0130485
0.00358612
0.0011777
0.0223689
-0.0432703
-0.0327968
-0.011735
0.0454975
0.000756347
-0.0345176
0.0255912
0.00506318
-0.00723565
-0.00112645
-0.00468212
-0.000710323
-0.0132874
0.00676371
0.0625857
0.00649279
-0.0176296
-0.0842288
0.0156161
0.0796758
0.0535165
0.0266109
-0.0112305
-0.0689055
-0.0295573
0.00638845
-0.000240967
0.0234012
0.0292974
-0.0274889
-0.00136694
-0.000454252
0.0302251
-0.0735562
0.0429157
0.00596645
-0.000762477
0.0497292
-0.0549352
-0.00517281
-0.0283886
0.0514098
-0.0178313
-0.00924939
0.00826573
0.00126282
-0.0222724
0.0127393
0.00879613
-0.00579338
0.00525671
0.0169194
0.0144603
0.00560518
0.000207757
-0.00312389
-0.00270302
0.0133701
-0.00806769
-0.0239379
0.0186349
-0.00870812
-0.0215691
0.0139566
0.00138496
-0.000747444
-0.00137697
0.00073975
5.93815e-05
0.00347335
-0.0484009
-0.0508369
-0.000627822
-0.00486485
-0.0301039
0.01654
0.0184254
0.0477166
-0.0542752
-0.00517223
0.0946721
-0.0671667
-0.0575716
-0.0282066
-0.0136872
0.00962952
-0.00533148
-0.0137246
-0.0178833
0.0203606
0.00243983
-0.00491747
-0.0376096
0.00496668
0.014357
0.018088
-0.00313696
0.0148246
-0.0297784
-0.0543135
-0.0278353
0.058154
0.0240024
0.0882352
-0.13654
0.00909982
0.0392442
0.0237396
-0.040833
0.0239725
-0.00683344
0.0130317
-0.0100936
0.0127497
0.0927849
0.0160846
-0.0666802
-0.0421898
0.0142718
0.0366003
-0.0206193
-0.0302521
-0.166732
0.00668998
0.0427485
0.117294
0.00686284
-0.00120722
-0.0163189
0.0106523
-0.0625594
0.0605615
-0.00111635
-0.0200915
0.01895
-0.0159333
0.0170719
-0.0365649
0.0314761
0.0144707
0.0303192
-0.0315883
-0.00444323
0.00571276
-0.0179818
0.00837657
0.0414798
-0.0318741
0.00903587
-0.023264
0.0224887
-0.00826248
-0.0452174
-0.00640685
-0.00845658
0.0600766
0.0666104
-0.0599854
0.015906
-0.0225339
0.0109391
-0.021262
0.0194724
-0.00916487
0.032751
0.0141166
-0.0521766
0.005328
0.0824967
-0.0962806
-0.109772
0.00524356
0.0209217
-0.0139496
-0.0121862
0.0214623
0.00174141
-0.0121076
-0.0111036
-0.00139276
-0.00307695
0.000454146
0.00401486
-0.0144528
0.00192017
0.0339885
0.00432542
0.000261567
-0.00597949
-0.0129821
0.0145852
-0.0514001
0.0497918
0.113588
-0.0619961
-0.0465724
-0.0986435
-0.262944
0.0996078
-0.0175695
0.0151907
-0.0141215
0.0366173
0.0282883
-0.0113984
0.0202561
-0.0395892
-0.00130753
-0.038599
0.0109884
0.0277574
0.0552959
-0.0243411
-0.0225296
-0.00842407
-0.0173716
0.0135202
0.0591524
0.00722279
-0.000593637
-0.0143889
0.00776262
0.0067436
-0.0209438
-0.0119131
-0.00474411
0.0120803
0.00457287
-0.010341
-0.018376
0.0168038
0.0217113
0.00277836
0.0254784
0.00689977
-0.00177726
0.00210025
-0.000524721
-0.0070753
-0.016247
-0.00101372
0.0035333
0.00377588
-0.00790113
-0.0367084
0.0119801
-0.0308874
-0.0156509
0.0240104
-0.0175857
-0.0203779
0.0398115
-0.0146608
-0.0146448
-0.0105069
0.00750811
0.00136295
-0.00620602
-0.00266588
-0.00833245
0.00638446
0.00945493
0.0185895
0.0226145
-0.00867995
0.142498
-0.049328
-0.122075
0.0289134
0.00156932
0.0119876
-0.0221164
0.00856162
0.00259974
0.00684219
0.00122521
0.000998311
-0.0403211
0.0616541
-0.0223124
-0.0657647
0.00785477
0.0375824
0.0134343
-0.00346597
0.000543139
0.0217544
0.0485005
-0.0494232
-0.0126896
0.0471913
-0.0684836
0.0576979
-0.0398876
-0.0430911
0.0204078
0.0116007
-0.0129937
-0.019018
-0.0319071
6.33381e-05
0.0461173
-0.0433766
-0.0215832
0.00536097
0.0596006
0.0104619
-0.0388785
-0.0200328
0.0484567
-0.0163701
0.00100092
0.000830379
0.00765113
0.000733444
-0.00866165
0.000268761
-0.122988
0.179987
0.0291831
-0.0313815
0.0165883
-0.0092186
-0.106359
0.0393404
0.0762685
-0.00314211
0.00408679
-0.0230327
0.022092
0.0358837
0.00546964
-0.018628
-0.0227248
-0.00728989
-0.0244423
-0.0754863
-0.1187
0.235613
-0.0413779
-0.000227921
0.00373009
-0.0108608
-0.0686421
-0.0418846
-0.00866889
-0.0734292
-0.012256
0.177073
0.00244065
0.00184239
-0.0076721
0.00340068
0.0551538
-0.040683
-0.0153195
-0.0474872
-0.0454796
0.082639
0.0103273
0.00556625
-0.0426143
0.0428657
-0.0058175
0.00802753
0.0175086
-0.0199697
-0.0317438
0.0269829
0.00443681
0.04588
-0.0144672
0.0106433
3.47413e-05
0.0305942
-0.00514324
0.045852
-0.0461061
-0.0173663
0.0222553
-0.0348998
0.0116408
0.00101139
0.000944695
0.00510527
-0.00361754
-0.00243245
0.00263597
-0.000411533
-0.00127948
-0.00158526
0.00609723
-0.0285984
-0.0256512
0.0249664
0.0292877
0.0171233
-0.0378672
0.0538802
-0.0331384
0.0294435
-0.0382475
-0.0201104
0.0289089
-0.00994114
0.00737386
0.0404452
-0.0327466
-0.0368483
0.0371693
0.0324253
0.0401731
-0.021211
-0.0357285
0.00132061
-0.00616166
-0.0201342
0.00182774
0.00252241
0.00821384
-0.0743344
0.220532
0.188356
0.0465256
-0.251754
0.0168891
0.0126046
0.00133826
-0.094507
0.00945145
0.0183372
0.0667167
-0.163296
0.0967451
0.0573658
-0.102565
0.0191259
0.0682319
0.00597644
-0.0442875
0.0191778
0.0408151
-0.0446109
0.000876946
0.00292971
-0.0131881
0.0327372
-0.0514553
0.0277041
0.00126847
-0.0605034
0.0315258
0.0770567
0.0557911
0.0210593
-0.165465
0.0886162
0.105463
0.0423952
0.0294031
-0.0463186
0.0363281
-0.0194116
0.138692
-0.104034
-0.00439131
0.0097033
0.00369567
0.010577
-0.0239759
0.0648824
-0.133926
-0.0168386
0.0858874
-0.0585245
-0.00972588
0.0448417
0.0908729
-0.0687842
0.0346647
0.121093
0.0556457
0.0510506
-0.0356101
-0.0710877
0.0507196
-0.227878
0.0432344
0.0267486
-0.0534407
0.0147124
0.01198
-0.0169102
-0.00262912
-0.00184347
0.0213833
-0.00777233
-0.0101699
0.0402109
-0.0147273
0.0290109
0.000971254
-0.015247
-0.0106533
-0.000847075
0.00278901
0.00871153
-0.00547594
-0.00906629
0.0566809
-0.0474361
0.017504
-0.0163418
0.0361793
-0.0732781
-0.0499319
-0.005546
-0.00721858
0.037173
0.0177836
0.0108897
0.0864652
-0.035471
-0.0617629
0.0895623
0.0149851
-0.0165759
0.145936
-0.0840686
-0.0453107
0.00393951
0.080383
-0.0120156
-0.0723038
-0.00579
0.0377846
-0.0151902
0.215754
-0.0257979
-0.165908
-0.0240419
0.0338126
-0.0325329
-0.114348
-0.0267225
0.0966456
-0.0461637
0.0300366
-0.0272493
-0.00357113
5.63169e-06
-0.00337955
0.00694692
0.0104132
-0.000623541
-0.00604798
-0.00374233
-0.00474163
0.00368252
-0.00769539
0.00875481
0.000176684
0.0013108
-0.00213175
0.000644134
-0.00807861
-0.00267029
-0.0120891
0.0228372
-0.149862
0.0108711
0.0919054
-0.0196316
-0.0144201
0.0736718
-0.0396063
0.0709008
-0.124908
0.00868134
0.0453316
-0.00832589
0.00144831
-0.0244838
0.0313591
-0.000651029
-0.000178222
0.00105981
-0.00023264
-0.00228214
-0.0057371
0.00258323
0.0054635
-0.00858222
-0.000871672
0.00651732
0.00295249
-0.0766652
0.0192563
0.0605343
-0.00310913
-0.0178169
0.00592466
0.0120891
-0.000197758
0.00231639
-0.0037077
-0.00555977
0.00695138
0.00374768
0.0172368
0.00320645
-0.0137106
-0.0142092
0.015654
0.00327298
-0.00400084
-0.00169979
0.0024293
-0.00186378
-0.0109029
0.00417777
0.00390076
-0.00265918
-0.00515519
0.00389359
0.00243334
0.00233678
0.000335482
-0.000435372
-0.00360705
0.0038314
0.00021147
-0.0585381
0.0381571
0.049014
-0.015293
-0.0375408
0.00980714
0.0103882
0.00119941
-0.016442
0.00485282
0.00947408
0.011292
-0.0103795
0.00333109
0.0111669
-0.0225712
0.00807068
0.0618716
-0.00801165
0.0373103
-0.0911941
-0.0172704
-0.0362397
0.022933
0.0305834
0.137406
-0.152884
0.0712714
0.166877
0.0410012
-0.0781124
-0.129775
0.0778219
0.0792903
-0.026537
0.0823265
0.000572907
-0.00507918
-0.0702103
0.0347106
0.11479
0.0460628
-0.0339469
0.0413407
0.00186443
-0.00849657
0.059205
-0.0200072
-0.0204306
0.0289666
0.028933
-0.00694443
0.00594755
-0.0279419
-0.011315
-0.0156465
0.0222139
0.0772435
0.0285824
-0.0838267
-0.0183335
0.0297626
0.0236657
-0.00661674
0.000827719
0.0198605
0.064536
0.00704674
-0.071301
-0.000274679
0.202445
-0.13134
-0.0534742
-0.0174633
0.029909
-0.00221005
-0.0283504
-0.123514
0.119919
-0.0174501
0.0210472
0.0975017
-0.0706326
-0.0542797
0.0274131
-0.00141759
-0.00916271
-0.00133842
0.011915
0.0254531
-0.0121699
-0.0147015
-0.0411515
0.00951289
0.0254784
0.00615206
-0.0212931
0.0175067
0.000559478
0.00318949
-0.0574835
-0.0275416
0.257723
-0.215091
0.00295118
-0.0455622
0.069305
0.0210719
0.031364
-0.00773615
0.0158171
0.00512129
-0.01317
0.000444458
0.0187514
0.0185942
-0.00964119
-0.000221701
0.0547752
-0.0386331
-0.034908
0.0187646
-0.0517804
0.0788669
0.0121441
-0.108731
0.0638997
0.0326886
-0.0139444
0.146731
-0.125099
-0.00758281
-0.0402842
0.0137951
-0.015691
-0.0460166
-0.0201881
-0.0409422
0.020846
-0.00910192
-0.0202405
0.00740946
0.0220257
0.00468334
0.00395478
0.0162648
-0.0249308
-0.0379746
0.0634501
-0.0345772
-0.0150448
-0.0333285
-0.00131063
-0.00200792
-0.0346741
0.00566621
-0.015254
-0.0199668
0.0116954
-0.00588291
0.0098505
-0.0156651
-0.0106294
0.0159806
0.0376522
-0.0430121
0.000328639
-0.00281756
-0.000744793
0.00323328
0.00734263
-0.00128782
-0.00669407
0.000639109
0.000966973
0.00926405
0.0190619
0.00420431
0.00592787
-0.00279003
-0.0382469
0.0329762
-0.0137824
0.0190574
0.026868
0.010475
-0.0252953
-0.0124431
-0.119325
0.0390352
-0.0523995
0.0056446
-0.131145
0.00617461
-0.0419206
0.0885152
-0.00755927
-0.0508041
0.0145275
-0.00731763
0.0259646
-0.022535
0.00388483
0.0314312
-0.0895555
0.044242
0.0165487
-0.0266118
-0.0145688
0.063342
0.0184991
-0.0669581
-0.0246494
0.0905952
-0.0182277
-0.0161045
0.0104578
0.0571882
-0.0515468
-0.00330214
-0.0300769
0.0514703
-0.0180928
-0.0157987
0.00489131
0.0346682
0.0231705
0.00493261
-0.0333576
-0.005517
0.0325356
0.00154653
-0.0285781
-0.000295778
-0.00544125
0.0174376
-0.06513
0.126834
-0.0346401
-0.0203277
0.0248899
-0.0914668
0.0207671
0.0742469
-0.00354609
0.00045798
0.0149918
-0.0159023
0.000453158
0.00202599
0.0100537
-0.0116235
0.0236535
-0.00413685
-0.0269832
0.0339017
-0.00110853
-0.00583724
0.0131874
0.0122359
-0.0134361
0.0487334
-0.0314161
0.0357703
-0.171458
-0.0733493
-0.00648682
-0.00980263
-0.00931615
0.0256262
-0.137239
-0.0319091
0.12411
0.0450383
-0.039259
0.0526368
-0.00702379
-0.0122078
0.00788688
0.0113436
0.0102997
-0.0260154
0.00869109
0.0328266
0.0355523
-0.0277832
0.0025299
0.0161718
-0.00432039
-0.00700965
-0.00484762
-0.0802869
0.129726
-0.000705876
0.00754719
-0.04842
0.0264066
0.0226366
0.00186468
-0.035941
0.0114379
0.0513949
-0.0760022
-0.00680872
0.0410589
-0.00564941
-0.00234766
-0.0330608
-0.0218834
0.0331063
-0.0110404
-0.000179111
-0.00588014
0.0190874
0.0615574
-0.00612973
-0.00692552
-0.0485017
-0.0588861
0.0299943
0.0331074
-0.0542402
0.0580105
-0.0411836
0.0233458
-0.0586084
-0.0516564
0.051379
0.0124845
-0.012788
-0.00419917
0.00450252
-0.0116877
0.0113715
-0.00167092
0.00198728
-0.00161029
-0.00273284
0.0113495
0.00502428
-0.00388959
0.0245188
-0.0393547
-0.0385542
-0.0121801
0.0228489
0.00913244
-0.0262523
0.0215026
0.0193752
-0.00465964
-0.0448843
-0.0620932
0.0157334
0.00185161
-0.0120072
-0.0055791
-0.00222979
0.00733276
-0.0030968
-0.00199804
0.00504531
0.000248005
-0.00201978
-0.000764943
-0.0149321
-0.00330513
0.0189961
0.0040856
0.0183025
-0.00284431
-0.0045746
0.0184042
-0.00524762
-0.00860427
-0.00458981
0.00360587
0.00336306
-0.00237615
0.0154013
-0.0173543
-0.0109303
-0.0055356
0.0153257
0.00334072
-0.0130944
0.00714963
-0.00674237
-0.0529792
0.0662249
0.264859
-0.0733575
0.014997
0.0285606
0.0114569
0.00935125
0.0166945
-0.0375016
0.0286934
0.0736901
-0.0809304
-0.0214528
0.0172846
-0.0143956
0.00395473
-0.00684683
0.00735663
0.0114879
-0.00205942
-0.025195
0.0995133
0.11198
-0.0256165
-0.0271492
0.100398
-0.0371338
-0.00495907
-0.0421768
0.0492541
-0.00211736
-0.0222695
0.0014684
0.0158447
0.00848055
-0.0291751
0.00899724
-0.0227858
0.011334
-0.0177726
-0.00626776
0.0127073
0.00343679
-0.0352384
0.0342413
-0.00244046
0.0149843
-0.0119568
0.000823507
-0.00385085
-0.0010962
0.000812603
-0.00864074
0.00891653
-0.00533831
0.00606888
0.00690178
-0.0508865
-0.000111396
-0.0515665
-0.0313461
0.0154949
-0.00855625
0.0130552
-0.0271121
0.0558996
-0.0417807
-0.0386424
0.0393049
0.150446
-0.151106
-0.105813
-0.103978
0.0854003
-0.046153
0.0626202
0.0740329
-0.090501
-0.0603434
-0.0402826
-0.00518701
-0.0316629
-0.0748334
0.0141463
0.00447995
-0.0182555
-0.000371318
0.00107196
-0.0272087
-0.086686
-0.0156701
0.012123
0.0902351
0.0011979
0.0175157
-0.00106786
-0.017669
-0.0097011
0.00942514
0.00146545
0.0123638
-0.00832991
-0.00853972
0.00450553
0.0150803
-0.0258105
0.0139705
-0.00323392
0.00280861
-0.0101785
0.00838981
-0.00155424
-0.00888743
-0.00521382
0.0156541
0.0118932
-0.017989
0.0110195
0.0999273
-0.106116
-0.00805351
-0.0385414
0.0191693
-0.0243417
-0.0170186
0.0101708
0.0792172
-0.041295
-0.0133759
-0.0299862
-0.000205168
-0.0111043
0.0112917
-0.0743065
0.0632258
-0.000203891
-0.0383426
-0.0158603
-0.00347907
-0.0818146
0.0544654
0.082144
-0.0547966
-0.015745
0.026404
0.0648155
0.00275239
0.0111699
0.0219619
-0.00213139
0.000848101
0.0066816
-0.0053988
-0.0094444
0.00273909
0.00457254
0.0244822
-0.00214584
-0.0166646
-0.041986
0.0120304
0.00457905
-0.00611557
0.00425967
-0.00272428
0.000140994
-0.00500784
-0.0619076
0.0889142
0.0359552
-0.0629612
0.00935069
0.0351522
-0.0549828
0.0296163
0.019675
-0.0187019
-0.0305902
-0.0836979
0.0143989
0.0128379
0.0564569
-0.0153093
-0.0122985
0.00956048
0.0180415
-0.0299322
0.0382941
0.0053388
-0.0137072
-0.00471816
-0.00771894
0.00494858
0.0176602
-0.000312934
-0.0231282
0.0163017
0.0325713
0.0143566
-0.0632306
-0.0174608
-0.0285458
-0.00114088
0.047146
0.0298079
-0.0767284
-0.0422245
0.089122
0.0251145
-0.00675573
-0.0207485
0.00239138
-0.0422157
0.0234481
0.0438817
0.0601713
-0.0544348
-0.012492
-0.00526921
0.0232253
0.0101048
-0.0309848
-0.00473283
0.0256192
0.11195
-0.0264467
0.0668746
0.0398069
0.0717873
-5.22939e-05
-0.00796965
-0.0637727
0.0042382
0.0378297
-0.0292164
-0.012849
8.60154e-05
-0.00737504
0.00802175
-0.0539085
-0.0518503
0.0632443
0.042575
0.00810231
-0.0979823
0.0317423
0.0581346
-0.101717
-0.0468402
0.156897
-0.00833948
-0.00696544
-0.0395606
0.00124793
0.0452787
-0.0124458
-0.0906877
0.131773
0.00351108
0.00956012
-0.00152905
0.00299172
0.0400576
0.0165843
-0.0596308
-0.00784297
0.00128308
-0.00207794
-0.00805082
-0.00280851
0.0129358
-0.0228773
-0.00137285
0.0214188
-0.0349334
0.00579379
-0.0610368
-0.0170373
0.0122382
-0.0788623
0.0371168
-0.0201595
-0.0657796
0.0454426
-0.0470797
-0.0109824
-3.60538e-05
-0.00105207
0.00131984
-0.000243615
-0.000823449
-0.000312795
0.0010988
0.0585416
0.00836363
-0.000294355
-0.0308555
-0.0170001
0.00960708
0.0929551
-0.00513107
-0.0234676
-0.0643588
-0.0129026
0.0336885
-0.0134276
0.0501679
-0.064083
-0.00335211
-0.0351825
-0.095229
0.0868944
0.0412363
-0.0428157
0.053562
-0.0231346
0.000284257
-0.0306803
-0.120589
0.120355
0.00735174
-0.00712012
0.00024294
0.0249463
0.106629
-0.13235
-0.0460423
0.0718139
-0.0188163
-0.0647716
0.0652707
0.0183113
-0.0672921
0.0883694
0.00810803
-0.0291876
-0.0054558
0.0707489
0.0236231
0.00799326
-0.00521414
0.0238062
0.0418784
3.40591e-06
-0.065694
0.0109036
-0.00571137
-0.00510641
-8.69716e-05
0.00409571
-0.00656809
-0.00589232
0.00135235
-0.025447
0.0131346
-0.0021052
0.00200569
-0.0301598
0.05816
0.0846871
0.0462937
-0.0213015
-0.125319
0.100325
-0.00938513
-0.00272062
0.0139716
-0.0018518
-0.0647146
0.012238
-0.0132883
0.00405732
0.0079959
-0.00481711
-0.0341589
-0.0392224
0.00372462
-0.00658289
0.0420751
0.0672999
-0.000875494
-0.00579547
0.0318468
0.0134384
-0.0323114
-0.0129715
-0.179196
-0.0577524
0.00974925
0.00165136
0.0153894
-0.0267791
0.00177692
0.000629455
-0.00264359
0.000340436
0.00144239
-0.00161937
-0.0134015
0.0136222
0.0055304
-0.00202371
0.0894734
-0.00554806
-0.0679572
-0.0159622
0.00921515
-0.000398943
-0.0159099
0.0070948
0.00145913
-0.00661527
0.0143716
0.00607925
0.0195713
-0.0523505
0.0168418
-0.0760572
0.0237686
-0.000267928
-0.00255064
-0.00146088
0.00426294
8.09654e-05
-0.000746488
0.000388093
-0.0135189
0.0108346
0.0140208
0.000154983
-0.00071101
0.000394216
0.000159602
-0.00140689
-0.000986011
-0.00119429
0.00371911
-0.00287838
0.000305357
-0.0096017
0.00720768
0.00118624
-0.0194818
0.0208503
0.000926136
-0.0735194
0.0229766
-0.00377179
-0.0507504
0.00516703
0.0572892
-0.0116991
0.00780615
0.00211911
-5.09119e-06
-0.00991743
0.00904303
-0.00245818
0.00122373
0.0122257
0.000302903
-0.0104092
0.0176438
-0.0279937
0.0193934
0.0623103
-0.0534484
-0.00786635
0.0101779
-0.0347437
0.0523948
-0.0597971
0.00908993
0.0452576
0.0054442
-0.0575573
-0.0164224
-0.0231437
0.032323
-0.00988688
0.000705705
0.0477336
0.018234
-0.0377086
0.0201006
-0.0034015
-0.0390513
0.0225661
0.0686422
-0.0667946
-0.0351415
-0.0261504
0.0628651
0.0354181
-0.0400924
-0.0460675
0.0511665
-0.0242044
-0.0100084
-0.0169132
0.00993223
-0.0454958
0.033709
-0.0494502
-0.0120948
0.0490103
-0.0148268
0.0276973
-0.0618709
-0.0519972
0.05825
0.00175185
0.0306613
0.0335373
0.000338816
0.00523542
0.00673884
-0.0095277
-0.0808436
0.0440762
-0.0257912
-0.110248
0.168138
-0.136598
-0.0350533
-0.0753287
0.0417438
-0.0477958
-0.077938
0.0938733
0.0318666
-0.00491494
-0.0210146
-0.00914969
-0.00383727
0.0382262
-0.0575477
0.0231657
0.333926
0.350953
-0.636367
-0.0124113
0.107752
-0.0915027
-0.00439788
-0.00975735
0.00272644
0.0114218
0.545837
0.325602
-0.537516
0.0829977
-0.0109126
-0.0661243
-0.131993
-0.0315395
0.173867
0.00822404
-0.018109
0.0428487
0.441052
-0.105535
0.0154346
-0.193736
-0.0408694
0.675673
0.0444392
-0.0753067
0.0471675
0.0510753
0.00415422
-0.0314549
-0.0237774
-0.0203734
0.0463428
0.0106443
-0.0204882
-0.0080981
0.0467496
-0.0148447
0.0557555
0.0518729
-0.0107727
-0.00454071
-0.00151798
-0.0999649
0.101271
-0.0162938
0.000802632
-0.0256316
-0.0149603
0.00988706
0.0307043
0.0968239
0.0539399
0.0386005
-0.0416563
-0.00497868
0.00803379
-0.0105565
0.0160376
0.0183249
0.0426288
-0.0370381
-0.0289358
-0.0109006
0.0216735
0.0044157
-0.0151921
-0.136608
0.073286
-0.0084987
0.0135889
0.0146132
-0.0196936
-0.0802347
0.085513
0.0601062
0.0206716
0.0678781
-0.0699459
-0.0186011
-0.104989
0.0418182
0.0330317
-0.00128916
-0.0172606
-0.0100477
0.0285946
-0.00825703
0.00541027
-0.0112422
0.0140833
-0.0424206
0.0652017
0.0448324
-0.0676071
0.0122848
0.0204755
-0.0353887
0.00265042
0.0368107
0.0761522
0.00623508
-0.0034787
-0.0150128
0.0147687
-0.00146601
0.0232641
0.00571571
-0.00462864
-0.00394547
0.00286179
0.000777933
-0.0040272
-0.00427473
0.00754405
-0.0260152
0.0168424
0.0121722
-0.0344072
-0.000620848
-0.00430619
-0.0128994
0.0378319
-0.0125034
-0.012425
0.0632365
-0.0464486
-0.0285977
0.00263137
0.00185578
-0.0015747
-0.0029115
0.00457432
0.0118609
-0.0724346
0.115246
-0.0373413
-0.0101524
-0.0224971
-0.0910461
-0.147714
0.0203843
-0.00588068
-0.0987313
-0.0368652
0.0512671
-0.0340733
0.0196736
0.0526724
-0.00738087
-0.0536241
0.00834742
-0.0746381
0.0509993
0.014081
0.00955845
-0.0209284
0.00460575
0.0127278
0.00363176
0.0302367
-0.0534915
-0.0105549
0.033808
-0.00428787
0.000340642
0.0055753
-0.00163313
0.00212273
-0.0083716
0.00432336
0.009625
-0.0104603
0.00374108
0.00257566
0.0041422
0.00481789
-0.0020166
0.00124083
0.0101191
0.00659959
0.0145256
-0.00238568
0.000209461
0.00341611
-0.000886855
0.00509995
-0.0308162
-0.067526
0.111446
0.016063
-0.0345693
-0.0451381
-0.0112472
0.0291396
-0.00182947
0.00100167
0.000199266
0.00999627
-0.0112021
-0.026749
0.0468103
0.00511054
-0.0251423
0.00154539
0.000172474
-0.0044055
0.00268775
-0.0453228
0.0256793
0.00313458
-0.0304073
-0.00843218
0.0172554
-0.0698539
-0.106311
0.102869
-0.123042
0.0524728
0.38486
-0.601755
0.453468
-0.236549
0.0159431
0.0559885
-0.072696
0.0183374
-0.0737745
-0.0228362
0.0782725
-0.00228759
0.00851805
-0.0919845
0.0813252
0.134255
-0.123589
-0.0382409
-0.16212
0.082476
0.117882
-0.00205178
0.0161001
0.025489
-0.0752598
0.131243
-0.0387915
-0.0171418
-0.027794
0.0305384
-0.00998109
0.00724082
0.0174273
0.0135954
0.00136355
-0.0323886
-0.0119001
0.135188
0.0705287
-0.00179351
0.0714365
-0.0453803
-0.0240617
0.0561765
0.0300232
-0.0335462
-0.0526657
-0.00149747
-0.070659
0.0904934
0.00563561
-0.0519944
0.0432276
0.00311846
0.0342304
0.0156818
-0.0296806
-0.120128
-0.1143
0.0292284
-0.0307495
-0.0300643
0.0810113
-0.0151982
-0.0339645
0.0102572
-0.000242259
0.0431836
-0.053206
-0.0153631
0.00716427
0.00465349
0.00355028
0.0120507
-0.0132678
-0.0177531
0.018971
-0.0639955
0.0964551
0.00201688
0.000137252
-0.00890298
0.0153516
-0.00658277
0.0049498
-0.00756765
0.00275824
-0.00656205
0.00794178
0.00347558
-0.00965322
-0.000382644
-0.00389967
0.0104895
-0.00527351
-0.00520884
0.00850707
0.0139046
-0.00705837
0.0929422
-0.0267793
-0.0211573
0.014412
0.0492798
-0.0847141
0.0310444
0.00167436
-0.0391378
0.0421291
-0.0038152
0.0181038
0.00193109
-0.01735
-0.00268795
-0.0588447
0.0537122
-0.0366987
-0.00368047
0.00564917
-0.0039811
-0.0835461
0.0215196
0.0322545
-0.0163712
0.0109052
0.0204516
0.0313128
-0.0673802
-0.0570241
-0.0345829
-0.0875744
-0.0180959
0.0099267
-0.0139562