/*--------------------------------*- C++ -*----------------------------------*\
  =========                 |
  \\      /  F ield         | OpenFOAM: The Open Source CFD Toolbox
   \\    /   O peration     | Website:  https://openfoam.org
    \\  /    A nd           | Version:  11
     \\/     M anipulation  |
\*---------------------------------------------------------------------------*/
FoamFile
{
    format      ascii;
    class       volVectorField;
    location    "80";
    object      U;
}
// * * * * * * * * * * * * * * * * * * * * * * * * * * * * * * * * * * * * * //

dimensions      [0 1 -1 0 0 0 0];

internalField   nonuniform List<vector> 
20983
(
(-0.00522705 0.00980315 0.0497151)
(0.119125 0.158365 0.126177)
(0.0950816 0.0893489 0.111792)
(-0.0128945 0.0280988 -0.0182135)
(0.129607 0.215037 0.131845)
(0.0177125 0.128559 -0.0621489)
(0.0262938 0.0174952 -0.0141058)
(-0.00018091 -0.0199567 -0.0243147)
(-0.033335 0.00425211 0.00364496)
(-0.0226417 0.0562156 0.0441674)
(-0.0481334 0.0483109 0.109789)
(-0.0240665 0.0315706 0.0780661)
(-0.00479325 0.003992 0.0613491)
(-0.0758033 -0.00153055 -0.0271494)
(-0.00441059 -0.0247295 -0.0158311)
(-0.0293227 0.0257959 0.50237)
(0.161445 0.0342367 0.127484)
(0.00205931 -0.00198861 0.0261832)
(0.0234279 0.0263555 0.00895397)
(-0.0294118 0.0264405 -0.00103149)
(0.116878 0.0424018 0.0336703)
(0.0179569 -0.00456256 -0.00593323)
(-0.00723837 0.0102363 0.0550812)
(-0.00855596 0.031896 0.0588423)
(0.013253 -0.0127811 0.00741513)
(-0.0683148 -0.0162076 0.0226804)
(0.0113712 0.000786547 -0.00569097)
(-0.0467558 0.0756837 -0.000336269)
(-0.0584337 0.0403557 0.0096537)
(-0.0292409 0.0553574 0.00116928)
(0.0178069 -0.0314415 0.348683)
(-0.0509781 0.0336811 0.00230611)
(0.0882835 0.0190872 -0.0838146)
(-0.0283887 0.0359363 -0.0073196)
(0.0116664 0.0422572 -0.0268663)
(-0.0139988 -0.0255384 -0.019313)
(-0.0274399 0.00182848 0.0167529)
(-0.0381459 0.0337808 -0.012026)
(0.0399238 0.0156384 -0.0302862)
(-0.020696 -0.0171753 -0.0137029)
(-0.0349956 0.030896 0.00466025)
(0.191795 0.0450356 0.136231)
(0.100789 0.0581069 -0.101759)
(0.0168696 -0.0283463 -0.0249632)
(-0.0588086 -0.0431555 -0.0468873)
(0.131744 0.0531043 -0.109037)
(-0.0104109 -0.000609367 0.016405)
(0.010682 -0.0206189 -0.00254165)
(0.070273 0.027555 0.391263)
(-0.220966 0.0147982 -0.0295531)
(-0.0391521 -0.024248 0.00999614)
(0.0681319 0.010578 0.152355)
(0.0468251 0.0162005 0.0286318)
(-0.0154832 0.0371602 -0.339041)
(0.00691003 0.012865 0.0652067)
(0.0223137 0.0169916 0.0135455)
(0.00188685 -0.00104498 0.0298333)
(-0.0205623 -0.00806853 -0.0111537)
(0.00088437 0.0139447 -0.0574504)
(-0.0157023 0.00938278 0.0152313)
(-0.0281152 -0.0221005 -0.0866981)
(0.0887086 0.0423243 -0.0227885)
(-0.0150675 0.026817 -0.015319)
(-0.0243905 0.0396464 -0.0226369)
(0.0563673 0.0895973 0.0631351)
(0.0323395 -0.00263497 -0.00715778)
(-0.00075204 -0.0882477 0.0291583)
(-0.0194391 -0.0254371 -0.0233442)
(-0.00975233 -0.0671394 -0.0405749)
(-0.0207472 0.0180235 0.0517887)
(-0.0380435 0.0262962 -0.0231896)
(0.0078047 0.0150411 0.0555707)
(0.00835245 0.0393919 0.0251009)
(0.0902744 -0.0107908 -0.0701004)
(0.0813634 0.0652923 -0.00617332)
(0.112272 -0.330746 0.297683)
(0.16314 -0.513753 0.278058)
(-0.0279776 0.0562767 0.0497096)
(0.018448 -0.112044 0.496503)
(-0.0638561 0.00732902 -0.0372166)
(-0.0525165 0.00263933 -0.0173608)
(-0.0275579 -0.0127974 -0.00526123)
(0.030413 -0.039717 0.0395512)
(-0.250195 0.539193 -0.228658)
(0.0116615 -0.0919497 -0.0601935)
(-0.00946981 0.0405991 0.00784706)
(0.00064384 -0.1093 0.0103628)
(0.0378078 -0.0612481 -0.11981)
(0.0128173 -0.101165 -0.241147)
(0.0136776 0.0156309 0.0278409)
(0.0147189 0.0781985 -0.191507)
(0.66141 -0.110833 -0.241272)
(-0.214332 -0.0648266 -0.0354591)
(0.0187091 0.0357626 0.00499951)
(0.078774 0.0551338 -0.180099)
(-0.047144 0.000182921 -0.0317258)
(-0.0323222 -0.00895255 0.300089)
(0.058917 0.0282587 0.0778964)
(0.093903 -0.0192449 -0.0382971)
(-0.0884409 0.0172132 -0.059465)
(0.0189636 -0.0211391 0.0357701)
(0.0266889 0.0025858 -0.0207302)
(-0.0315725 0.0987089 -0.141513)
(-0.0402766 -6.12185e-05 0.346463)
(0.0119134 -0.00705439 -0.0195525)
(-0.0293782 -0.0109439 0.0130349)
(0.0101962 0.0075561 0.239697)
(-0.0638498 -0.000143217 -0.0207244)
(0.079701 0.144081 -0.340437)
(-0.0127818 0.00316061 0.049914)
(0.000425167 0.0190002 0.0213634)
(-0.0190842 0.0430271 0.0166582)
(0.00229287 0.0150021 0.0503035)
(0.318938 -0.00656085 0.117662)
(0.211119 0.045726 0.155416)
(-0.0692054 0.0036195 -0.0301325)
(0.094677 -0.262184 0.171869)
(0.0566504 -0.154519 0.37807)
(0.591713 -0.680756 -0.45149)
(0.0993381 -0.261961 0.296124)
(0.004065 -0.000147749 0.0457309)
(0.0970065 0.087401 0.0211174)
(0.119778 0.000409547 0.253443)
(0.22209 -0.157649 0.111132)
(-0.0146152 0.0244502 0.0460674)
(-0.0147827 0.0380927 0.0720974)
(-0.0248189 0.0274787 0.032367)
(-0.0457947 0.0494478 0.0900056)
(-0.030125 0.0170959 0.0523861)
(-0.0269273 0.0478167 0.259013)
(-0.057633 0.0269682 0.0959868)
(-0.0557061 -0.0471427 -0.0494314)
(-0.0122051 0.0553971 0.148553)
(-0.0532172 0.14353 -0.0274384)
(0.0346069 0.0372335 0.0331216)
(0.065718 0.0225787 0.0574755)
(0.0289885 0.0118347 0.0463057)
(0.027773 -0.0118143 0.0713451)
(-0.0649004 0.0216231 0.0260434)
(-0.00424408 0.0237706 0.181234)
(0.004936 -0.00985019 0.43122)
(0.0160526 -0.0794846 -0.0453747)
(0.149427 0.0516664 0.0979524)
(0.00359561 -0.00865625 -0.00341738)
(-0.0262279 0.0566678 0.040036)
(0.0296493 0.0139306 0.0661434)
(-0.0207402 -0.0223197 0.00670697)
(0.217904 -0.202018 0.385063)
(0.290774 -0.22152 0.361077)
(0.0347965 -0.120318 0.445454)
(0.0851197 0.0261113 -0.160931)
(-0.00561735 -0.0899804 0.0196778)
(-0.0773972 0.0146207 -0.0613788)
(0.154521 0.0283574 0.0604083)
(-0.0558878 -0.0257145 0.0574143)
(-0.0688357 0.0228587 0.0830754)
(-0.0517848 -0.0230375 0.0443077)
(0.00767833 0.0190367 -0.0161056)
(-0.0243132 -0.00178918 -0.00347958)
(-0.0496774 0.0775014 0.35041)
(0.0341367 -0.00448154 0.0146853)
(0.0788697 0.0657232 -0.0151622)
(-0.0136519 0.0156225 0.03682)
(-0.0214533 0.000520387 0.044755)
(0.0673111 0.0996366 -0.263609)
(-0.0121964 0.0021509 0.0363215)
(-0.0386116 -0.00980285 0.0504553)
(-0.0235264 -0.0342163 -0.00646283)
(-0.0379751 -0.0160911 0.0501878)
(-0.0442115 0.00326709 0.0408213)
(0.00563774 0.0207976 0.01146)
(-1.16647 -1.11776 -0.984076)
(-0.132524 -0.458579 0.0786322)
(0.225882 -0.0946014 0.185618)
(-0.0569105 -0.0162987 -0.0636449)
(-0.00657971 0.027375 0.0426756)
(0.0862036 -0.22371 -0.0754529)
(-0.0539651 -0.024091 0.0648808)
(-1.1739 -2.12315 -1.35951)
(-0.0727904 0.0252389 0.132603)
(0.00121888 0.0368571 0.0881734)
(0.150049 0.00783262 -0.157925)
(-0.131976 0.203414 0.385794)
(-0.0154348 0.0314227 0.0566573)
(-0.0201865 0.013133 0.0485019)
(-0.269955 0.105104 -0.361194)
(-0.00263441 0.0318124 -0.0145022)
(-0.0139174 0.0259898 0.0343044)
(-0.0508578 -0.0220067 -0.140472)
(0.0260321 -0.0212502 0.0350923)
(-0.00617895 -0.00303225 -0.0259888)
(-0.071322 -0.0102337 -0.011396)
(-0.00579875 0.0202275 0.00200198)
(0.00188735 0.0465302 -0.0900637)
(0.0823947 0.0330314 -0.0295097)
(-0.0170578 0.0229117 -0.0110058)
(0.0256688 0.0250924 0.35616)
(0.0289626 0.029989 -0.0536639)
(0.0221688 0.0303517 0.342085)
(0.0478954 0.0325121 0.101766)
(-0.0106774 0.0291478 0.0440917)
(0.0276081 0.000558863 0.368377)
(-0.0382486 0.017817 0.11742)
(0.0300557 0.0729741 0.0558288)
(0.0292241 0.0293334 0.160111)
(0.00401727 0.0450118 -0.0218741)
(0.0672144 0.0221362 -0.0189711)
(0.01499 0.0111684 0.0480691)
(0.466302 0.0716589 -0.507653)
(-0.0443085 -0.0362269 0.00725058)
(-0.0544167 -0.0287095 -0.0957983)
(-0.0331348 -0.0627084 0.0238934)
(0.0479617 -0.000643745 0.335533)
(0.00811788 0.00821859 -0.0477645)
(-0.0269915 0.00329997 0.0146047)
(0.0542919 0.0175339 -0.0360206)
(0.0443319 0.0680972 -0.0136538)
(-0.00588174 0.0472945 -0.0170487)
(0.0602304 0.0214955 0.0565291)
(0.109057 0.0166316 -0.0540618)
(-0.0254109 0.0708699 0.129068)
(-0.00392682 0.0190063 0.0328994)
(-0.0359492 0.0277156 -0.027191)
(-0.0243187 -0.0274849 0.271283)
(-0.0465924 -0.0103751 0.213078)
(-0.0135962 -0.0551213 0.278242)
(-0.0199566 -0.00672723 0.0441181)
(-0.0717625 0.00475373 0.167607)
(0.0449522 0.0623703 -0.107774)
(-0.0895209 0.0105752 -0.0550001)
(-0.0197788 0.0154969 0.0510335)
(-0.0843445 -0.0172462 0.0336809)
(-0.041399 -0.00505468 -0.00234645)
(-0.0484193 0.0260061 0.137889)
(0.493611 0.634664 -0.504825)
(0.0313031 0.0381619 0.0648596)
(0.396416 0.184948 0.0157399)
(0.019458 0.0293266 0.144306)
(-0.0500414 0.0413319 0.0680498)
(-0.0137044 -0.064103 -0.0221096)
(0.132281 0.131354 -0.165017)
(-0.0279462 0.0343612 -0.0718596)
(-0.0386989 0.0121631 -0.00872245)
(0.00342069 0.0421021 -0.00469294)
(-0.097429 0.025648 -0.0619774)
(-0.0340497 0.0338057 0.0411501)
(-0.0292205 -0.0159924 0.018868)
(-0.0575243 0.00121302 -0.0215668)
(-0.0983567 -0.0353543 0.367749)
(-0.0991278 -0.0619433 0.138161)
(-0.0457449 -0.0327948 0.470286)
(-0.123537 -0.0642894 -0.11931)
(-0.167471 -0.0658542 -0.210155)
(0.00791264 0.00767412 0.0314257)
(0.0113531 0.0474329 0.0270343)
(-0.0131326 0.0404132 0.250952)
(0.0312325 -0.0579241 -0.0892968)
(0.00687664 -0.0228282 0.0273026)
(0.0432291 0.0323801 0.0505884)
(-0.0891373 0.0138863 -0.0525546)
(0.110832 0.141251 -0.0884078)
(0.000478444 0.0533218 0.0186491)
(-0.0513518 0.0419103 0.00184181)
(0.00326683 0.0101067 0.0529679)
(-0.0205079 0.0272078 0.0312937)
(-0.0627998 -0.0254422 -0.00679494)
(-0.0588607 -0.0921187 -0.145713)
(0.0118139 -0.042633 0.0342228)
(0.00315267 0.0224554 0.0183193)
(0.0953371 0.00261127 -0.0427505)
(0.0121955 -0.017803 0.0397453)
(0.0933728 0.0870374 -0.11528)
(0.0128261 -0.0244021 0.00996425)
(-0.0314076 0.0435472 0.0830763)
(0.0100734 -0.0277918 -0.00964826)
(-0.00758071 0.00666168 0.0494977)
(0.00445029 0.000701316 0.0390781)
(0.0498915 -0.0759247 -0.00892883)
(-0.00835593 0.00783416 0.0324543)
(0.118856 0.0520842 0.0485902)
(0.0227131 0.0391982 -0.0270287)
(0.0455337 -0.00406166 0.116403)
(-0.0634644 -0.0330674 -0.0666175)
(-0.57141 0.179295 -0.390623)
(0.0178606 -0.00483838 -0.0193522)
(-0.00698061 -0.0101411 0.0287079)
(-0.0611568 -0.042905 -0.0682639)
(-0.0199071 -0.0267257 0.0384712)
(-0.0703031 -0.0478318 -0.0541545)
(0.00107023 0.0172046 -0.0772409)
(0.0229126 0.0582895 -0.127585)
(0.189858 0.0220755 0.141061)
(-0.0127464 0.0212403 0.00139811)
(-0.024463 0.0246971 -0.0608403)
(-0.0254035 -0.0457227 -0.0234677)
(0.00890237 0.0101535 -0.0574756)
(0.0287068 0.0647323 0.282213)
(-0.00236139 0.0159859 0.253059)
(0.0580468 0.0222181 0.0879802)
(-0.0404763 -0.021756 0.236129)
(0.0660686 0.0275213 0.035746)
(0.0534553 0.0424194 0.0839406)
(0.0557792 0.0236454 -0.0328783)
(0.072806 0.0136644 0.0867016)
(0.0859385 0.0302746 -0.0776648)
(0.0325407 0.0289986 0.288755)
(0.0550826 0.0145752 0.0908633)
(0.0542343 0.0272934 0.0909099)
(0.0472815 0.140891 0.350565)
(0.0256145 0.100658 0.388513)
(0.0591465 0.0272728 -0.101276)
(-0.0249583 0.0140739 0.140571)
(-0.0341568 0.0785362 0.197483)
(-0.0113432 -0.0215748 0.294675)
(0.0891059 -0.00442101 0.133467)
(0.00866952 0.0210914 0.00242032)
(0.235628 0.216634 0.455595)
(0.0557024 -0.0771254 -0.0111519)
(0.0447034 0.0576811 0.0466677)
(0.0145504 0.00296377 -0.00898614)
(0.0708039 0.0609317 -0.0651741)
(-0.0382826 -0.149044 -0.303183)
(0.0422135 -0.0247748 -0.214318)
(-0.00315038 -0.0103877 -0.022705)
(0.00921401 -0.0136165 0.0525777)
(0.0197915 0.0209784 0.0584375)
(0.0293353 0.0457041 -0.0134833)
(-0.0123599 0.00424254 0.0112723)
(0.00680406 0.0179602 -0.0176187)
(-0.00191834 -0.00890568 0.449137)
(-0.0180245 -0.00968226 0.393906)
(0.114861 0.0613777 0.123561)
(-0.0299228 0.0136899 0.0450219)
(-0.0130819 0.0215329 0.0155208)
(0.0169642 0.040164 -0.0217596)
(0.175911 0.104803 0.188402)
(0.760021 0.220054 -0.696206)
(-0.05214 -0.0266828 0.0639792)
(-0.00977031 -0.0612129 0.0963434)
(-0.17757 -0.63888 -0.505377)
(-0.0163445 0.0151483 0.0181419)
(-0.0401756 0.0432065 0.129616)
(0.0881584 -0.160114 0.466527)
(0.0145709 -0.123128 0.157162)
(0.0241432 -0.0273272 0.433168)
(-0.0275338 -0.012007 0.463437)
(0.213177 -0.0112106 0.00547196)
(0.00442618 -0.00121475 0.0321848)
(0.0796887 0.0265144 -0.0329588)
(-0.0479862 -0.0384448 -0.00472898)
(0.0389943 -0.0238142 0.0700749)
(-0.0154012 0.000830582 -0.0109922)
(-0.0350218 0.00259218 0.132061)
(-0.0208472 -0.0549813 -0.044067)
(0.0837547 0.0361556 -0.045633)
(0.0182411 -0.0240525 -0.0453471)
(0.0483555 -0.00152675 0.00707478)
(0.00133726 0.00594516 0.053821)
(0.0587561 0.0269538 -0.015238)
(0.0164884 -0.0380973 -0.0262013)
(-0.0135303 0.0246453 -0.0165205)
(-0.284712 0.240175 -0.64148)
(0.160269 0.0464879 0.132043)
(0.0411904 0.0179011 0.0114748)
(-0.0638032 0.0140134 0.0968124)
(0.17841 0.131891 0.178047)
(-0.0267869 0.0296075 0.105419)
(0.0122006 0.0128148 0.0579824)
(-0.03311 -0.0536893 -0.0673975)
(0.0068026 0.00144123 0.0606227)
(0.0335827 -0.00237791 -0.0624541)
(-0.00567926 0.00842945 0.227784)
(-0.0404696 0.0698304 0.133672)
(0.0362439 -0.00644773 0.125853)
(-0.0413812 0.0472982 0.0828143)
(-0.00413913 0.0729981 0.195129)
(0.0359933 -0.00265321 0.00504839)
(0.459415 -0.173479 -0.0161669)
(0.322188 -0.105854 0.0445596)
(1.61235 -0.575532 -0.424519)
(1.11185 -0.169394 -0.119602)
(-0.0608494 -0.021675 -0.0906444)
(0.517677 -0.207803 0.0253936)
(0.514195 -0.59569 0.0224802)
(0.102908 -0.367863 0.211297)
(-0.0537269 -0.0219992 -0.0269871)
(-0.0326355 0.0369286 -0.0454114)
(0.0826345 0.157812 0.275152)
(-0.378677 -0.0372827 -0.559851)
(0.459501 -0.585865 0.0793367)
(0.519104 -0.805745 0.0148146)
(0.228435 -0.588045 0.269876)
(0.00769684 0.0358932 -0.0291303)
(-0.0941042 -0.011943 -0.0559097)
(-0.0138039 0.0128041 0.171025)
(0.137854 0.0175498 -0.0965688)
(-0.0121207 0.0484398 0.107426)
(-0.0149407 0.0170264 0.0671545)
(0.188887 0.0161853 0.159327)
(-0.0875847 0.0192506 -0.058536)
(0.145692 0.0313895 0.0330355)
(0.0240964 0.0248231 0.073866)
(-0.0874462 -0.104182 -0.15759)
(-0.017119 -0.00379675 -0.0538707)
(0.156751 0.0363685 -0.0740973)
(-0.108418 -0.00624122 0.0941563)
(0.0270021 -0.0662782 -0.108657)
(0.266031 0.161997 -0.440987)
(-0.0124711 0.0290843 0.0465582)
(0.160927 0.0364247 0.0213207)
(-0.0231474 0.0204417 0.049208)
(-0.0484895 0.0674747 0.0172928)
(-0.0883366 0.0544184 0.0139758)
(-0.13545 0.0612375 0.00333241)
(0.0690323 0.166306 -0.0362512)
(0.0340866 0.011242 0.0120499)
(0.152606 0.0382816 -0.0645355)
(-0.00740965 0.107754 0.0795749)
(0.0502195 -0.00816195 0.0155478)
(-0.074986 -0.0276578 -0.172871)
(-0.112755 0.0659774 -0.0239579)
(-0.0242451 0.0566982 -0.0491304)
(0.0278543 -0.00548113 0.0637784)
(-0.0315153 0.0182822 0.0139474)
(-0.0278859 0.0447219 0.23854)
(-0.0149197 0.030727 0.0383214)
(0.0420564 -0.0574036 0.022455)
(0.0295043 -0.0509406 0.0218458)
(-0.00507381 -0.021151 0.181238)
(0.014299 0.0128638 0.0501475)
(-0.0253208 0.00993943 0.0180616)
(-0.0232753 0.047785 0.08618)
(0.119733 0.120598 0.169948)
(0.00647546 0.0119607 0.40012)
(-0.00579515 0.0445944 0.384484)
(-0.029969 0.0407537 0.34332)
(-0.055981 0.0719303 0.274562)
(-0.128911 0.0208772 0.24499)
(-0.0629666 -0.0134869 0.0515176)
(-0.248002 0.0672735 -0.132717)
(0.0381864 0.012111 0.0605524)
(-0.036076 0.00158186 -0.00295793)
(-0.0677597 -0.0178765 0.0866109)
(0.0511302 0.03221 -0.0834554)
(0.0125956 0.00123709 0.0151819)
(-0.0341827 0.0212263 0.0525306)
(0.231086 0.0241125 0.403152)
(-0.0241048 0.0260728 0.0468761)
(-0.0342019 -0.0975756 -0.248715)
(0.0519388 0.0119047 0.0699811)
(0.0434317 0.00101552 -0.156066)
(0.117165 0.0458094 -0.203051)
(-0.0146949 0.0489576 0.018177)
(0.0159167 -0.028146 -0.0452421)
(-0.00853054 0.043968 0.070502)
(0.149656 0.0308282 0.285124)
(-0.00433304 0.0135948 0.240437)
(0.00775036 0.00585031 0.0143588)
(-0.0191601 0.0282421 0.0290657)
(-0.0170386 0.0413513 0.0385679)
(0.195434 -0.147355 -0.308081)
(0.234776 -0.114657 -0.450429)
(0.106312 -0.0397839 -0.145612)
(-0.00452826 0.0768647 0.0965748)
(0.13204 -0.0351073 -0.108744)
(0.176238 -0.196191 -0.544402)
(0.139238 -0.0249187 -0.122508)
(-0.126404 -0.145263 0.0394869)
(0.0243613 0.029251 -0.0105552)
(0.0865473 -0.09698 0.2305)
(-0.0854745 -0.411504 -0.157415)
(0.0242577 -0.189303 0.199881)
(-0.0319939 0.0189911 -0.0074749)
(-0.0441898 -0.0206372 0.0377929)
(0.0752773 0.0216753 0.00829343)
(-0.0307924 -0.000553111 -0.0493545)
(0.0638705 -0.00589377 -0.0468439)
(0.00857917 0.0333572 -0.00447964)
(0.0388594 -0.0354247 -0.00233311)
(0.0360254 0.0166384 -0.0137785)
(0.0188087 0.0218881 -0.0179221)
(0.0310559 -0.00515576 0.00704788)
(1.65668 0.585326 0.0373186)
(0.0494145 0.163527 0.0464095)
(0.642119 0.338884 0.03922)
(-0.0912703 0.0390779 0.080237)
(-0.00405079 0.069572 0.033588)
(0.0203723 0.149488 0.172292)
(-0.000729679 0.00523072 -0.0623338)
(-0.0701537 -0.0140345 -0.0298329)
(0.038261 0.0125311 0.139372)
(-0.0382381 0.00540127 0.0752611)
(0.0435741 0.0196371 0.221722)
(0.00304351 -0.0340455 0.0274625)
(-0.0457021 -0.00902562 0.0124641)
(0.0182405 0.0117399 0.0193772)
(-0.0054681 -0.0149768 0.0262174)
(-0.0246075 0.0151595 0.519713)
(0.0458565 0.013872 0.315107)
(0.0154732 0.0441956 -0.112767)
(-0.00967651 0.024945 0.158197)
(-0.0204011 0.0352658 0.136419)
(-0.0148471 0.00383786 0.221806)
(-0.0305488 -0.0361717 0.00070379)
(0.0145121 0.0271296 -0.00398038)
(-0.0315353 -0.013671 0.432141)
(1.60572 -0.323805 0.332269)
(0.0239153 -0.00265945 0.0131588)
(-0.0734319 -0.0392074 0.0896494)
(-0.0112707 0.0281656 0.496352)
(0.0415608 -0.0718016 -0.0635525)
(0.0486285 -0.0817155 -0.0679667)
(0.00639607 0.0526925 0.505626)
(0.0501653 -0.0899909 -0.0618745)
(-0.00778766 -0.0178396 -0.011252)
(-0.0336704 0.00742702 0.309857)
(-0.0148144 -0.00161378 0.0412731)
(0.00144406 -0.0727981 -0.00536233)
(-0.0518233 -0.0136811 0.294121)
(0.0441062 0.0353778 0.0197582)
(0.022048 -0.00154938 0.0211655)
(-0.0217202 0.0252978 0.0449872)
(-0.0295277 0.0161765 0.070375)
(-0.0548217 0.00425384 0.225821)
(-0.0591409 -0.00351784 0.300191)
(0.0541766 0.0258397 -0.0287087)
(-0.071241 0.0191942 0.160912)
(0.0353745 -0.0240317 0.147531)
(0.0191383 -0.0221449 0.297409)
(0.0134833 0.00481429 0.357732)
(-0.015681 0.0147945 0.151425)
(0.275056 -0.442557 -0.534423)
(-0.0149661 -0.0164959 0.478422)
(-0.0256275 -0.000494318 0.0398937)
(-0.00946571 -0.0187202 0.423565)
(0.0908436 0.0810356 0.126463)
(-0.31827 0.0819356 -0.196675)
(-0.164661 0.0332674 -0.0957467)
(-0.0658167 -0.0254377 -0.150784)
(0.0431477 0.0287495 -0.0145667)
(-0.0171651 0.0105465 -0.00710505)
(-0.157128 0.340568 -0.065163)
(0.0998226 0.0557484 0.225319)
(-0.0111413 -0.0079605 0.0164833)
(-0.0069099 -0.0260465 -0.00909888)
(-0.00367919 -0.0861637 -0.0540548)
(0.153711 0.0295242 0.286779)
(-0.00812869 0.0261742 -0.0334722)
(0.0368928 0.0506662 0.0164291)
(-0.0268297 0.0309204 0.0641294)
(0.0178014 -0.0351959 0.00897913)
(0.0120182 0.0140818 0.0262581)
(-0.0317158 -0.0994998 -0.148449)
(-0.0604809 -0.0559821 -0.00778916)
(0.000967592 -0.065966 -0.235616)
(-0.0623828 -0.0164232 0.314523)
(-0.0247387 -0.0154212 0.13453)
(-0.0501384 -0.0131446 0.305736)
(0.0186812 -0.00844038 0.141738)
(-0.0230672 0.021593 -0.00459314)
(0.000494548 0.00796191 0.0845447)
(0.0255787 -0.00429248 0.0138073)
(0.0414929 0.00200515 -0.00198945)
(0.00104664 0.00492569 -0.0186977)
(-0.0310337 0.0387582 0.103649)
(0.00631552 0.02999 0.0322395)
(-0.0825866 -0.0234643 -0.0550314)
(0.116805 0.0272904 0.370231)
(0.586874 -0.376134 -0.26699)
(0.120202 -0.162355 -0.0249878)
(0.107648 -0.264031 0.103692)
(0.156604 -0.198877 -0.0127629)
(-0.100978 0.0551548 0.194456)
(0.02628 -0.0741629 0.254418)
(0.138077 0.0339527 0.120441)
(0.313623 1.15843 -0.440047)
(-0.609867 0.17056 -0.510398)
(0.0426257 0.0140827 0.202372)
(-0.0288076 -0.000598799 0.0149497)
(0.00135701 0.0242575 -0.0155882)
(0.0017489 0.00247621 -0.0166751)
(0.0352571 0.026636 -0.00924495)
(-0.0829881 -0.00260106 -0.0564337)
(-0.879141 -0.129754 -0.682634)
(0.0167816 0.0105755 0.0512649)
(-0.375224 -0.150952 0.319246)
(-0.155884 0.0197342 0.358467)
(0.0547044 0.051996 -0.00118356)
(-0.0249957 0.0149087 0.0543909)
(-0.0422684 -0.00346974 0.0676614)
(0.00388535 0.0376584 0.0926804)
(-0.0195882 0.0166057 0.0119069)
(0.00610791 -0.0622399 0.00398616)
(0.0188128 -0.0571152 0.0328768)
(-0.0302131 0.00896942 0.00742503)
(0.0261889 -0.0123185 0.0364205)
(0.016878 -0.0584682 0.0124338)
(0.0264955 -0.0568918 0.030583)
(0.043421 -0.0603545 -0.103032)
(-0.0330769 0.0561081 0.0816403)
(0.110664 0.0113025 0.00528799)
(0.00373513 0.0168768 -0.117643)
(0.012837 -0.00945882 0.044458)
(0.0263846 0.00467787 0.0245517)
(0.00809129 -0.0356115 0.0209727)
(0.0252475 -0.0206211 0.0260544)
(-0.0381592 0.0241747 0.0851739)
(-0.0578027 -0.00444977 0.0143788)
(0.098264 0.0714727 0.0351753)
(-0.138555 -0.0269213 0.0463403)
(-0.0755673 -0.0555935 0.208017)
(-0.0182613 -0.0387562 0.331822)
(-0.0291935 -0.0679311 0.328275)
(-0.0203407 -0.000201977 0.0183266)
(-0.00731748 -0.00413749 0.408634)
(-0.0240685 0.0157542 0.421167)
(0.0658033 0.0952343 -0.0210759)
(-0.0389321 0.00236564 0.034857)
(0.000983151 0.0197383 -0.0175116)
(4.00622e-05 0.060722 -0.105951)
(-0.0350767 0.0338124 0.0842872)
(0.0241389 -0.00826905 -0.280001)
(0.00842807 0.156315 0.0291952)
(0.0988571 0.0443431 -0.216446)
(0.038391 0.0130944 0.388631)
(0.131778 -0.198986 0.372374)
(0.0115598 0.0551087 0.0451332)
(0.190877 -0.147791 0.390216)
(0.248517 -0.124532 0.25914)
(-0.0148913 -0.0253556 0.00485735)
(-0.00342874 0.0320323 -0.0291435)
(0.0288803 0.0265176 -0.0589485)
(0.0252835 -0.0559507 -0.0686492)
(0.0582902 0.123738 -0.337456)
(0.0108285 0.0106826 0.0534199)
(-0.0456651 -0.0512388 -0.0212985)
(0.0189977 0.00945071 -0.00595458)
(0.02526 0.0385841 -0.027797)
(0.029622 0.0136935 -0.0352913)
(0.0208733 -0.0288751 -0.0739954)
(0.028077 0.0191682 -0.0383712)
(-0.0550392 -0.0125175 0.0466867)
(-0.130281 0.070978 -0.266764)
(-0.132185 -0.0403748 0.0985133)
(0.0069412 -0.00125333 0.0399148)
(0.148031 0.0429293 0.157668)
(-0.0218274 -0.000457843 0.012152)
(0.176574 0.0837186 0.255759)
(0.0242968 0.0728007 -0.00118113)
(0.0390156 0.065095 0.0640833)
(0.0421014 -0.0582957 -0.0978127)
(-0.0300887 0.0345643 -0.0230096)
(-0.0640366 -0.08248 -0.0416397)
(-0.151452 -0.194312 -0.0515323)
(-0.282329 -0.308582 -0.0883802)
(-0.0301835 0.236127 0.195746)
(0.0176668 0.023263 3.44159e-06)
(0.0764061 0.0410983 -0.0137335)
(0.0259942 -0.0937717 -0.11134)
(0.0047285 -0.00939956 0.00228113)
(0.0406251 0.0517809 0.0474668)
(0.0125132 -0.0298049 0.000697738)
(-0.0245136 0.000754804 0.0227328)
(-0.00535929 -0.0339121 -0.080787)
(0.00985261 -0.0905744 0.0259271)
(0.0413434 -0.0343063 -0.0358929)
(0.00469677 -0.011458 -0.419885)
(-0.0140046 -0.0439816 -0.0367691)
(0.0332529 0.00615195 0.017712)
(0.0301938 0.0250459 0.0323035)
(0.0196749 0.0180676 0.0327976)
(-0.0761754 0.0138151 0.0460965)
(-0.0162658 -0.0243209 -0.0422769)
(-0.020468 -0.0374344 -0.0331873)
(-0.0406573 0.0381537 0.00206864)
(0.0630217 0.00287776 -0.135369)
(0.0103238 -0.00060957 0.0849773)
(-0.0255109 0.0137553 0.00993347)
(-0.0288931 0.00565786 0.0153589)
(-0.0247053 -0.0100061 0.0383646)
(0.0361322 0.0102405 0.0760912)
(0.0241723 0.0155719 0.0471575)
(0.0310491 0.0107575 0.0707809)
(-0.0136814 -0.0193653 -0.0173097)
(-0.0599247 -0.0301713 0.00915015)
(-0.0637788 -0.034307 -0.0754093)
(-0.0250087 0.00718269 0.107518)
(-0.0382981 -0.00112443 0.125441)
(-0.0463898 0.0155577 0.167443)
(-0.0261093 0.00257627 0.0706859)
(0.0242051 -0.10207 -0.0549314)
(-0.0752275 -0.000179125 -0.020272)
(0.0111842 -0.0162901 -0.0676921)
(-0.0931898 0.0279836 -0.0675396)
(0.0171356 -0.0201108 -0.0301336)
(0.0126796 0.0327406 -0.0211763)
(0.0141536 -0.0496408 0.00731855)
(-0.077016 0.136541 -0.31424)
(-0.0587355 -0.0407991 -0.0478914)
(-0.0261279 0.0143548 0.0540497)
(-0.0453685 -0.0157002 -0.0231128)
(-0.0490187 -0.0175147 0.0121749)
(-0.080345 -0.0381201 0.00187437)
(0.0879882 -0.0498439 -0.00903336)
(-0.0454077 0.0118141 0.0508553)
(-0.0345287 0.0211247 0.0535751)
(-0.282833 -0.677998 -0.280853)
(-0.030414 0.0422263 0.0835762)
(0.240087 0.270828 -0.399955)
(-0.0677225 -0.0252269 0.0823885)
(0.152258 0.0533168 -0.0895033)
(0.0314617 -0.00460323 0.0171219)
(-0.0285255 0.0206185 0.0419447)
(-1.16108 0.227833 1.89277)
(0.097934 0.0602842 -0.0591918)
(0.00456653 -0.00326133 0.01435)
(-1.1366 0.365243 1.50752)
(-0.0336564 0.0475215 0.0187377)
(-0.152457 0.118995 -0.227798)
(0.032234 0.0156736 -0.0132475)
(-0.753535 0.364289 1.35336)
(-0.834045 0.450456 1.09351)
(-0.039944 0.0227655 0.10015)
(-0.0384353 -0.0402743 -0.0187622)
(-0.0279573 0.0244304 -0.0491248)
(-0.0229625 -0.045309 -0.0235315)
(0.0987343 0.00143082 -0.0335968)
(0.0142831 -0.0230051 -0.00141284)
(0.149367 0.0268719 0.0458902)
(0.0118678 -0.0369355 0.00663594)
(-0.0267641 0.00833434 0.0804697)
(0.0156277 0.050189 -0.104955)
(-0.0300745 0.0275909 0.050192)
(-0.0390747 -0.0336732 -0.00102408)
(0.0496188 0.0642351 -0.035758)
(-0.0436726 0.0339595 0.0777993)
(0.228112 0.146686 -0.391715)
(0.0147085 -0.00663415 -0.000698766)
(0.1947 0.0473968 0.155424)
(0.0520849 0.0723353 -0.0879565)
(0.0637481 0.0444315 0.00848293)
(-0.0481519 -0.0164834 0.0234878)
(-0.0325041 -0.00689338 0.183757)
(0.0699756 0.0366919 0.0270129)
(-0.0443827 -0.0309522 0.0147546)
(-0.0227521 -0.00704405 0.501375)
(-0.0203042 -0.00745069 0.040873)
(-0.104111 0.0614238 0.238457)
(-0.0669985 0.0411573 0.394465)
(0.056248 -0.0694351 -0.111193)
(-0.0465949 0.0158764 -0.0388213)
(-0.00236341 0.0178552 0.00524057)
(-0.0229878 0.0412345 0.00928513)
(-0.0475711 -0.0245031 -0.0278648)
(-0.00371132 -0.0407872 -0.0392377)
(-0.0862207 -0.0537777 0.020863)
(-0.0655076 0.0184622 0.3821)
(-0.028698 0.0413786 0.0712215)
(-0.0544363 -0.0328834 -0.000137775)
(0.183631 0.12002 0.177189)
(0.142424 0.0776988 -0.174245)
(-0.0310812 0.0296658 0.0752092)
(-0.0654004 -0.0318936 -0.0698828)
(-0.0513341 -0.00782528 0.0724635)
(-0.0228093 -0.0234416 -0.0229783)
(-0.0175309 0.0306771 0.0403164)
(-0.0291935 0.0950525 0.159237)
(-0.035605 0.0129163 0.437254)
(-0.0360001 -0.0866624 -0.0977207)
(0.027502 0.0573992 0.454364)
(-0.00443922 -0.0234094 0.493588)
(0.0171327 -0.0432701 0.479487)
(-0.0107018 -0.0274192 0.489155)
(0.0586638 -0.0617142 0.336676)
(-0.039647 -0.0215662 0.359117)
(-0.0859522 -0.0298063 -0.0608377)
(1.57182 -0.366121 -0.837757)
(0.959573 -0.105794 -0.204167)
(-0.0292034 -0.0204923 -2.21235e-05)
(-0.0268105 -0.0521234 -0.0368609)
(0.0996912 0.117685 0.342992)
(0.00540269 0.037147 0.0370133)
(0.0186622 0.014031 0.0303328)
(-0.159931 -0.0828866 -0.275529)
(0.104027 0.0640947 -0.0259894)
(-0.39258 0.234087 0.510729)
(-0.0367636 0.046859 0.0631327)
(-0.0919729 0.0450452 0.133388)
(-0.00146014 0.0220977 0.0127192)
(0.108802 0.0341904 0.110688)
(0.0794527 0.00591591 0.362299)
(0.0353668 0.0138741 -0.0355312)
(0.068989 -0.066558 0.0140691)
(-0.0174691 -0.0203676 -0.0356543)
(-0.039439 0.00839744 -0.0147277)
(-0.0640417 0.110545 -0.108575)
(-0.102431 0.0823012 0.0684116)
(-0.00968559 0.00751745 0.0468214)
(-0.0931097 0.0429775 0.128049)
(0.0235384 0.0595811 -0.0286224)
(-0.0188122 -0.0519173 -0.0223515)
(0.192935 0.125765 -0.310534)
(0.00297019 -0.00821103 0.0435529)
(0.0466145 -0.0319559 -0.081099)
(0.0168375 0.0175727 0.0572191)
(0.00706279 0.00716752 0.017502)
(0.0375968 -0.000254934 -0.0442976)
(-0.0596369 -0.0487262 -0.0548976)
(-0.0924666 -0.150672 -0.210238)
(-0.00878904 0.0671583 -0.208655)
(-0.0619039 0.0387001 -0.196606)
(-0.154512 0.0583146 -0.233426)
(-0.0960404 -0.119701 -0.214061)
(-0.132247 -0.212161 -0.212382)
(-0.10867 -0.154429 -0.208341)
(-0.0239135 -0.00503018 0.238605)
(-0.0271322 0.0549397 0.0509924)
(-0.046078 0.00377785 0.0562383)
(0.0438084 0.0729148 -0.134535)
(0.01062 -0.0347716 -0.0162758)
(-0.116688 0.0716094 -0.356013)
(0.060926 0.0212309 -0.16463)
(-0.0278475 0.130754 -0.339316)
(0.015524 -0.000846972 0.0416119)
(0.0841687 0.0648382 -0.00695437)
(0.180814 0.278233 -0.153101)
(0.132853 -0.0802513 0.0176922)
(0.112209 -0.155929 -0.114298)
(-0.150873 -0.17604 -0.326857)
(-0.000499325 0.0219807 0.361621)
(0.0699163 -0.287474 -0.126293)
(-0.0481871 -0.0569698 -0.0581609)
(-0.0540458 -0.0131074 0.0743764)
(-0.0224068 0.00951889 0.0476658)
(0.111318 0.0153289 0.411401)
(-0.00737877 0.0201315 0.0245721)
(0.0143862 -0.132023 0.00563879)
(-0.0173138 0.0120785 -0.0233227)
(-0.423093 0.279885 0.562599)
(-0.0251317 0.0467914 0.0861638)
(0.0255893 0.0324318 -0.0186942)
(-0.0343034 0.0246359 0.0501247)
(-0.0903991 0.107018 0.292317)
(-0.0135039 -0.0246393 0.449007)
(0.0169421 0.0268792 0.478188)
(0.0128457 0.0209941 0.0221825)
(-0.0357032 -0.0875318 0.166336)
(0.053655 -0.0240561 0.272564)
(0.0143459 -0.0109595 -0.00344306)
(0.0323218 -0.0580584 -0.00791998)
(-0.0831895 -0.0150158 0.0443393)
(0.0412969 0.054015 0.0446067)
(0.023365 0.0282623 -0.112029)
(0.0526872 -0.0581966 -0.0375779)
(-0.0980677 -0.00369838 -0.0564851)
(0.000881624 0.0178495 0.0402137)
(-0.101781 -0.0406183 0.0612611)
(-0.0244778 -0.0313809 -0.0170945)
(-0.0149793 0.0301703 0.0803523)
(-0.0131132 -0.0167952 0.031091)
(0.0811931 0.00441061 0.0782758)
(0.143783 0.079068 -0.172716)
(-0.0102693 -0.00264126 0.0536027)
(0.115483 0.051977 -0.10879)
(-0.0279806 0.0666451 0.0551754)
(-0.0252891 -0.031909 0.00763642)
(0.128902 0.0953579 -0.0665039)
(-0.0281531 -0.0518758 -0.046451)
(-0.0464823 0.0224351 -0.110509)
(0.175393 0.0583944 -0.0853033)
(0.248325 0.0461492 0.0259337)
(0.143922 0.0313227 -0.0487754)
(0.160492 0.0600521 0.0266483)
(-0.0147166 0.0426643 0.00831942)
(0.0147802 -0.0486652 0.0323073)
(-0.0139546 0.0180758 0.00432682)
(-0.0452202 0.00195402 0.0577141)
(-0.0304772 -0.0167002 0.0319193)
(-0.0192865 -0.00125569 -0.00502327)
(-0.0519155 -0.164078 -0.0551116)
(-0.069597 0.0502571 0.0854328)
(-0.109292 0.0234116 -0.000680993)
(0.000668162 0.0393602 0.0865692)
(0.00542427 -0.00982089 0.00554809)
(0.0169958 -0.0141821 -0.00500045)
(-0.0251806 0.0031845 0.0764183)
(-0.0360665 0.0222627 0.0658457)
(-0.0978686 0.0147561 0.267053)
(-0.0354548 -0.0118974 -0.0711172)
(-0.0110328 -0.0311051 -0.0178212)
(-0.00819773 -0.0251736 -0.00745386)
(-0.0332972 0.0083589 0.0539627)
(-0.0413865 -0.0361262 -0.00741974)