/*--------------------------------*- C++ -*----------------------------------*\
  =========                 |
  \\      /  F ield         | OpenFOAM: The Open Source CFD Toolbox
   \\    /   O peration     | Website:  https://openfoam.org
    \\  /    A nd           | Version:  11
     \\/     M anipulation  |
\*---------------------------------------------------------------------------*/
FoamFile
{
    format      ascii;
    class       volScalarField;
    location    "100";
    object      p;
}
// * * * * * * * * * * * * * * * * * * * * * * * * * * * * * * * * * * * * * //

dimensions      [0 2 -2 0 0 0 0];

internalField   nonuniform List<scalar> 
20983
(
-0.0137884
-0.0479349
-0.00589024
0.00626156
-0.0539139
0.00088027
0.00878775
0.000381813
0.0110573
-0.00272743
0.00503659
0.00237856
-0.0102323
-0.0124959
0.0130576
0.00217086
-0.0218274
0.00403337
0.00400266
0.00648302
0.0207045
0.0102868
-0.0154545
0.0036491
0.010589
0.00990914
0.0105462
0.0103027
0.0142216
0.0126078
0.209974
0.0137389
0.0135644
0.0147173
0.00470338
0.001401
0.0108702
0.00933239
0.0189532
0.000833834
0.00620874
0.0109568
0.0268571
0.0088439
-0.00144482
0.0264728
0.00409731
0.0111923
0.246458
0.245176
0.0139693
-0.0205187
0.00972229
-0.000410953
-0.0116729
0.00403998
0.0032746
0.000810564
0.00805468
0.0104697
0.00409997
0.0174033
0.00618304
0.00730884
0.0206405
0.00415642
0.0143228
0.000657567
0.00259893
0.00375977
0.00881162
0.0103423
0.0138965
-0.00447661
0.0239598
0.0468006
0.0719834
0.00994359
0.0609842
-0.0173034
-0.0123854
0.00649985
-0.0679555
-0.0478674
0.00272174
0.0068985
0.0113318
0.000256301
-0.0191827
0.0053226
0.0103252
-0.131567
0.0244006
0.00744137
0.00169764
-0.0136903
0.0462358
-0.00860937
-0.00316946
-0.0248073
0.0118426
0.0190236
-0.0119382
0.0078616
0.0162128
0.00463581
0.011417
-0.0133922
-0.0411475
0.00996122
0.00903131
0.00509711
0.0107893
-0.0307364
-0.0263703
-0.0155958
-0.0421588
0.00357345
-0.257763
0.0460463
0.010746
-0.00687897
-0.0251649
0.00426382
0.00824394
0.00426275
0.00586727
0.0102828
0.0124421
0.00890397
0.0127166
0.000505479
0.00719199
0.0141245
0.0126934
0.00916227
0.00883842
-0.00996004
0.0122443
0.00299726
0.00702597
-0.00386781
0.0215698
0.00321511
0.00974733
0.0098073
0.014021
-0.0046419
-0.0211422
-0.0722125
0.0110227
0.0148922
-0.0260908
0.0198234
0.0311454
0.041083
0.00912064
0.0108239
0.00950113
0.0766439
0.0102302
0.0210603
0.000704702
0.000247624
-0.00501576
0.0013128
0.000593356
0.00509588
0.000604387
-0.000162087
0.0101692
-0.22668
-0.0266965
-0.0374639
-0.0776243
0.00254243
-0.113166
0.00309549
-1.41251
0.00533219
0.00343849
0.0157341
0.0425814
0.0126154
0.004325
-0.0585307
0.0125453
0.00585763
0.00232838
-0.0706103
0.00963926
-0.0181157
0.00962833
0.00960942
0.00364889
0.00756478
0.000639982
0.013878
0.0106911
-7.31827e-05
0.00980488
-0.00293841
0.00582021
0.00394442
0.0078732
0.00743695
0.0179398
0.0098089
-0.103646
0.00125244
0.0080868
0.0319505
0.0173252
0.00848786
-0.0104715
0.0180751
0.00717032
0.0105605
0.0103084
0.0088789
0.00151184
0.0089674
0.00912869
-0.00268245
0.00449224
-0.00842536
0.00662597
0.00487029
0.00712551
-0.0294404
0.00441804
0.00964092
0.0111907
-0.0167863
-0.162365
0.0118568
0.0138496
0.00164458
0.00113719
0.00327573
0.00865006
0.0144632
0.00977434
0.00822218
-0.0254177
0.0090711
0.00974831
-0.0125552
0.131568
0.059606
0.229633
0.0356898
0.0441276
0.00487316
-0.00311585
0.0050288
-0.00755295
0.00976084
0.0101673
-0.0246721
-0.00432071
0.000247028
0.0165781
0.0104729
0.00648755
0.0012123
-0.102441
0.00932748
0.00874073
0.012225
0.0106081
0.0199025
0.0103017
0.00493283
0.011602
0.0102673
0.00982768
0.0021205
0.00983155
-0.0154513
0.00813649
0.140104
0.0119279
0.0777137
0.00355485
0.0112268
0.0129938
0.0105822
0.0102137
0.0111141
0.00514844
0.0181523
0.00582969
0.0158479
0.0090801
0.00445084
-0.00234277
-0.00150525
0.00452715
-0.0227101
0.00494973
0.00292714
0.0168923
0.00340863
0.00391212
0.0101514
0.00402937
0.00337941
-0.00282085
0.0155013
0.00437101
0.020713
0.029735
0.0202054
-0.0189574
0.00699447
0.972298
-0.0302609
0.00915622
0.0106322
0.0228059
-0.0214641
-0.0160279
0.00220528
0.00983083
0.010876
0.00893994
0.00433921
0.00272899
0.0177013
0.0109416
-0.0672575
0.00921943
0.00516666
0.00532186
-0.0688082
0.00451602
0.00366921
-0.00578816
-0.200204
0.00551133
0.00482673
0.001402
-0.00336406
0.0960885
0.0465585
-0.000709062
0.00989876
0.0183645
0.0124161
0.00163265
0.00221044
0.00471154
0.00445664
0.00772764
0.00285071
0.00836295
0.00933264
0.0195881
0.00867238
0.0116927
-0.176508
0.0144503
0.00659592
0.00779514
-0.0709057
0.00371727
0.0103552
0.0229911
0.0100405
0.0123274
0.00945331
0.00312084
-0.02255
0.00454416
0.00999616
0.0125395
0.0213265
-0.12941
-0.468802
-0.00897458
0.00654453
-0.0219753
0.262961
0.00135784
0.0113327
0.0194292
0.00177317
0.100698
0.495699
-0.0278319
0.0411396
0.00437246
-0.0505557
0.00760618
0.0406182
0.00292671
0.012567
-0.00375052
-0.0227889
0.0232325
0.0111837
0.0335781
0.00702265
0.0175182
0.00363452
0.0128916
-0.0303207
0.00560626
0.0195345
0.00562379
0.00522222
0.213248
0.192849
0.0213555
0.00758611
0.0183066
0.00611493
0.0084054
0.0747307
0.208537
0.213508
0.0026678
0.017064
0.0067441
0.00934734
0.00349089
0.00378828
0.0224338
0.00864002
0.00320636
0.00478183
-0.00774188
0.0111597
0.0150872
0.00965009
0.000894719
-0.00310742
0.0148839
-0.0295633
0.0100649
-0.0113382
0.00275953
0.00500174
0.013944
0.00553173
-0.049021
0.00595093
0.0239631
0.0104166
0.0372821
0.025092
0.00932068
-0.00247566
0.00324086
-0.00781219
0.0142407
0.00201415
0.00571022
0.00373578
0.00704863
-0.0362347
0.007183
-0.111962
0.0103232
-0.0136865
0.00333324
0.19977
0.00805261
0.182031
0.110598
0.113649
0.00966881
0.00332229
0.0108901
0.00488885
0.00416836
0.0087484
0.00399505
0.00798063
0.00361063
0.0170228
0.028701
-0.0674099
0.0566391
-0.0190652
0.00972267
0.00811632
0.00801188
-0.0470687
0.00790042
0.00601847
-0.00709334
0.00374714
0.0168484
0.00459752
0.00330371
0.0442256
-0.00724552
0.00405296
-0.00451783
-0.000865227
0.00122113
0.0122932
0.00663454
0.0165331
-0.383792
0.00890563
0.00788634
0.120022
0.0077307
0.0067569
0.0228018
0.00639076
0.0174132
0.00343897
0.0107062
0.0074819
0.00427294
0.0104638
0.00219876
0.00600191
0.00437273
-4.66476e-05
0.0143428
0.019946
0.0004691
-0.000262232
0.000611458
-0.00996396
0.00700143
-0.0314328
0.00707157
0.0105521
0.0178196
-0.0745937
0.0533041
0.0608091
0.101252
0.0099514
0.00929026
0.0576037
0.0722197
0.0102219
0.0156387
0.00248479
0.00620586
0.0123235
0.0111591
0.00577517
0.011105
0.0050575
-0.11304
0.00782124
0.00844603
-0.00340112
0.00253606
0.00391059
0.00106317
0.0177055
0.00653094
0.00601125
0.010782
0.00261415
0.00436411
0.00549639
-0.0176682
-0.00324327
-0.135864
0.00392619
-0.0695546
-0.0107498
0.0167776
-0.00808456
-0.00147172
0.532805
0.94522
0.321232
0.0020217
0.0128605
0.00225578
0.00445534
-0.053455
-0.279071
0.0109149
-0.293583
-0.173927
0.0186463
0.00423593
0.00344793
0.00400637
0.00525256
0.0105917
0.00989394
0.00944551
0.0025657
0.0105318
0.00986789
0.00823935
0.00998918
0.0110938
0.0104499
0.0106703
0.0103408
0.0108679
0.0043708
0.00996914
0.00944203
0.0188152
-0.0218793
-0.0100322
-0.00609841
0.00514949
0.00244731
-0.00450578
-0.00102414
0.0150136
0.0104346
0.00299642
0.0454619
0.0103632
0.0115524
0.00391619
-0.0138808
0.0189696
0.0291373
0.00178783
0.00520909
0.079462
0.00797069
0.00208967
0.0126321
0.0107257
-0.0390328
0.0105026
0.0606247
0.0600254
0.0079326
0.00711957
0.00601433
0.00581043
0.00330952
-0.00298498
0.00290763
-0.0181643
-0.00584932
0.00203681
-0.0606273
0.0420347
0.00644126
0.00845394
0.00933801
0.0108245
-0.237641
-0.278514
-0.0747484
0.00895444
0.0162228
0.00636633
0.00956924
0.0103605
0.0109904
0.00250062
0.0057659
0.0114698
0.0083497
-0.123991
0.00399309
0.00482242
0.00479783
0.00396653
0.010389
0.0172462
0.0171858
0.00579595
0.00188955
0.0339479
0.0454095
0.0156474
0.0401423
0.0347496
0.0460643
0.0454807
0.0144324
0.000562814
0.0134071
0.00869428
0.00879971
0.0084783
0.00811087
-0.0260517
-0.0202391
0.0106177
-0.0231213
0.00330263
0.0108864
-0.0436532
-0.00202818
-0.00410578
0.00409041
0.00333521
0.00979167
0.000900389
0.112126
0.00268955
0.0055473
-0.294982
0.0050418
-0.123193
0.00385753
0.0192739
0.0101244
0.00411472
0.47539
0.0238788
0.00977321
0.273114
0.00939202
0.159062
0.00916465
-1.31771
0.588691
0.00975406
0.00280405
0.0155089
0.000912958
0.0107427
0.00973768
0.0254192
0.0105212
0.00658667
0.00480018
0.00629029
0.00896169
0.00723353
0.0122236
-0.0247222
0.0169341
0.00167992
0.0101456
0.0129808
0.00920926
0.0160221
0.00796181
0.0121756
0.0258579
0.0182858
0.0143696
0.0100196
-0.035654
0.00775591
0.000469225
0.00540976
0.000802973
0.000487748
-0.00128734
0.00527367
0.00486246
0.00116035
-0.0907677
0.0108498
0.00450852
0.0123344
0.00269024
0.00798339
0.0056625
0.0178364
0.0648649
0.045696
0.239654
0.227643
0.207233
0.207531
0.180721
0.180934
-0.0227917
-0.172583
-0.00776954
0.0102618
0.00802511
0.22631
0.0142975
0.0105919
-0.0453323
0.0188396
-0.0535838
0.00917763
0.011828
0.00924779
0.0047107
0.0190884
0.0171631
-0.0852286
0.00395792
0.0103886
0.00458636
-0.0590124
0.0107274
0.0123105
0.0207907
0.00525647
-0.059881
0.0096564
0.00659268
0.0119071
0.00429139
0.0110661
-0.00204623
0.0444493
0.00401482
0.0114065
0.00492495
0.0444977
0.0223263
0.0459928
0.00415768
0.0102289
0.00325312
0.00741115
0.010683
-0.00690831
0.00491348
-0.0176854
0.00471794
0.0229738
-0.0371234
0.260865
0.214794
0.18351
0.218297
0.211348
0.00843923
0.00252086
0.0105796
-0.00848399
0.00681599
-0.0698316
0.00817791
-0.035698
0.00548585
0.00919537
0.00551987
0.496013
0.0140843
0.0423666
0.00572163
-0.00511399
0.00453596
0.00341217
-0.0449486
0.00983291
0.00838344
0.0105613
0.00347676
-0.0346273
0.106048
0.0587791
0.0130601
0.0106865
0.0102213
-0.00662344
0.00533175
0.0100239
0.0129901
0.010012
0.0120186
0.0152338
-0.00059958
0.15401
0.0144679
0.00541795
0.0170006
0.0171028
0.00989997
0.00853063
0.00024435
0.00294265
0.00981542
0.0016191
-0.0374507
0.0136507
0.00719684
0.00381014
0.00992692
0.00243745
0.00528631
0.00452948
0.00839135
0.0108488
0.00228359
0.00285831
-0.00126732
-0.00652781
0.0105737
0.0870558
0.00433867
0.00794676
-0.00465609
-0.0231506
0.00127702
0.00912026
0.00272486
0.0115678
0.0091472
0.00289721
0.0108679
0.0125926
0.0042652
-0.0698516
0.0136388
-0.0391414
-0.00297235
0.00588311
0.227344
0.00640384
0.235194
0.00971755
0.00512554
0.0103573
0.00467284
0.00717747
-0.0400047
0.0144595
-0.0372766
0.0106264
0.00717979
0.00387886
0.000463096
-0.0230259
0.00821815
0.00836852
0.0108772
0.0342157
0.00956736
0.0400914
-0.0151955
0.00162028
-0.0689999
0.0135273
0.00978755
0.00828911
0.00790148
0.00663309
-0.0154001
0.00889636
0.0118021
0.0141733
0.0114706
-0.00774175
-0.00181705
0.000332365
-0.00395293
-0.00614356
-0.00405099
0.0133201
0.000198738
-0.00574048
-0.00189003
0.00418734
0.0101494
0.00536677
0.00515722
-0.0168985
0.013492
0.00647177
0.02792
0.0838064
0.0328427
0.0952776
-0.0792456
0.0043408
0.0100728
0.00553106
0.00750626
-0.111415
0.012056
0.00955388
0.000617672
0.00988991
0.00941426
0.00928587
0.00413871
-0.0706857
0.00580706
0.00801994
-0.0220647
0.0119856
0.00783945
-0.0559473
-0.0341091
0.00420927
0.0118264
0.0118514
0.0170208
0.00577282
0.0112274
0.00526901
0.0018238
0.000908561
0.00130706
0.00843364
0.0149132
0.00990322
-0.0200903
-0.0178463
0.0119762
-0.0205755
0.0220313
0.00758174
-0.00285137
0.0103685
0.00392489
0.00380259
0.0172064
0.060078
0.010346
-0.0487022
0.00713562
0.0043191
0.00458029
0.034333
-0.0711464
0.0012802
0.00202393
-0.000779739
0.0021495
-0.00101699
0.00200996
0.00485099
0.00982462
0.00358639
0.0132584
0.0138503
0.0136887
0.00910179
0.00872578
0.00973097
0.0228091
0.0105744
0.00942381
0.00375231
0.0111914
0.0113852
0.0120896
0.000549478
0.00874035
0.0130743
-0.00941859
-0.0403116
0.00724916
0.00697974
0.0105725
0.0128365
0.0096864
0.00653112
0.0039416
0.010749
0.0102978
-0.00111772
0.0228665
0.010833
0.00535281
0.00309151
0.00308358
0.00217271
0.00246323
0.00168639
-0.00668744
0.0106363
0.00697071
0.0104546
-0.0607988
0.0073907
0.00425267
0.00436458
0.00235186
0.00963435
0.00375695
0.0143688
0.0100354
0.0112247
0.0028504
0.00826609
0.0104182
0.0159777
0.00597082
0.00530445
0.0120699
0.00391559
0.0180756
-0.0438709
0.000826904
0.00657221
0.00538321
0.0105722
0.0182441
0.00524231
0.00649799
0.00115951
0.00211535
0.00274785
0.00371174
0.0437891
-0.0663442
0.0182478
0.144923
0.188502
0.0875806
0.184862
0.198273
0.00484037
0.0112756
0.00962522
0.00904288
0.0109305
0.0101608
0.00164507
0.00477059
0.0252667
0.000348974
0.00701058
0.00679283
0.00318716
0.0201567
0.00581621
0.00632117
0.0122761
-0.00462011
0.0092361
0.0108658
0.0101166
-1.7906
0.42668
1.25147
0.184082
0.0338582
0.0334867
-0.016754
0.00825285
-0.00927443
-0.0323777
0.00909414
0.00381624
0.159101
-1.63566e-05
-0.000103236
0.000524619
0.000508874
-0.000451266
-0.000127548
8.61197e-05
0.00432758
0.00886176
0.00375186
0.00749491
0.00728421
0.00861
0.00776188
0.0115024
0.0162048
0.00635817
0.00929927
0.00989775
0.00503385
0.00731556
0.0135657
0.0103116
0.0132994
0.00433171
-0.00325396
-0.000346237
-0.000808963
0.00421484
0.00938876
-0.0663911
0.00254195
0.00480729
0.00518699
0.00445161
0.0120841
0.00420955
-0.0343435
0.0104443
0.209208
0.16078
0.0839737
0.00591172
0.658823
0.141636
-1.24523
-1.73869
-0.764144
-0.245445
-0.274462
0.00984796
0.00700666
0.00191513
0.0106971
-0.0179089
0.0108553
0.0141503
0.0204874
-0.0500305
0.00465907
-0.042527
0.0013694
0.00790579
0.0192343
0.00559642
0.00346929
-0.00209093
0.00509954
0.0085687
0.0106914
0.0133056
0.0194094
0.0062596
0.00922588
-0.0680663
0.0121395
0.00266035
-0.00405319
0.000468658
0.0101571
-0.05023
-0.0106215
0.00645336
-0.00170416
0.0152165
0.000318691
-0.0119661
0.0100727
0.00934162
0.000418676
0.012745
0.0149274
0.0122441
0.000745147
-0.00201031
0.0115274
0.0102653
0.0107497
0.00472161
0.00539679
0.00290117
0.00791483
0.000456053
0.00122586
0.00902048
-0.00932109
0.00580557
0.00861524
0.00482742
0.0117842
0.0157773
0.0104744
-0.0222047
-0.333569
-0.112724
-0.992553
1.76187
-1.96448
-0.169457
0.0745879
0.0598551
0.0637681
0.0517254
0.0760473
0.00391591
0.0169163
0.0029772
0.102058
0.0139167
0.0136014
0.0125166
0.00828035
-0.0238358
-0.015212
-0.00389929
0.00494936
0.0119472
0.00192871
0.00173271
0.0108711
0.00784366
0.0120876
-0.000152812
0.00790179
-0.0098525
0.0101941
-0.0265076
-0.00104942
0.0104032
-5.80137e-05
0.00862524
0.00056245
-0.000529573
0.00309673
0.19536
-0.015868
-0.0376269
0.0130376
0.0205888
0.00504126
0.0111237
0.00998397
0.00929844
0.00619052
-0.0386246
0.00962397
0.0185008
0.00722894
0.00667
0.0101872
0.0105322
0.00526481
0.004413
0.0102427
0.001697
0.00120511
0.00140721
0.192998
0.00851473
0.00945943
0.0100295
-0.00140302
0.0102352
0.00878816
0.0101406
0.00859596
0.0099413
0.0027395
0.00982483
0.00858422
0.00347047
0.0083365
0.00520788
0.00916219
0.00608305
0.0149087
0.00594486
0.00353613
0.0104952
0.0243731
0.00538584
0.00867103
0.0180403
-0.0257553
0.0050012
0.00564151
0.0188967
0.00715608
-0.000207752
-0.00495326
0.0190373
0.00576777
0.00947987
0.0114416
0.0213897
-0.0230316
0.0036115
0.0103863
-0.00576789
0.00213824
0.000800053
0.000705115
0.00528596
-0.00413925
0.0170962
0.00168281
0.0374175
0.0120344
-0.0105723
0.00987632
0.00867711
0.00492256
-0.00984764
0.0172778
0.0133315
-0.0117043
0.00903937
0.00440395
0.0107385
-0.00410312
0.0133659
0.000107217
0.00436111
0.00210692
0.00639825
0.0109608
0.125434
0.0105876
0.00928467
-0.0355366
0.0110615
0.00856161
0.00649143
0.00161229
0.0117101
0.0144609
0.00933576
0.0144967
0.0196068
0.0153274
0.0106517
0.00945711
0.00463272
0.0141869
0.00319793
0.00405545
0.0101729
0.00394105
0.00984292
-0.0433348
0.00798633
0.00509992
0.00725544
0.00596336
0.00934194
0.00708561
0.0074668
0.00456447
0.00709509
-0.000375764
0.0125394
0.00219068
0.0106119
0.00927766
0.0110609
0.0166067
0.0143155
0.0100024
0.00776914
0.00378698
-0.0664777
0.0104009
0.010381
-0.00233117
0.0179132
0.0037088
0.00830008
0.00469875
0.00525758
0.00949603
0.00406594
0.00244417
0.0207486
0.00654994
0.0102215
0.0122501
0.003594
0.00314803
0.00919192
0.00978606
0.0117008
0.0107952
0.00769084
-0.0278143
0.00937876
-0.200182
-0.190517
0.100807
0.17326
-0.290704
-0.152506
0.00518624
0.00356649
0.0183156
0.00973755
-0.00226474
-0.0028992
0.00848346
0.0438841
-0.0648223
0.00341463
1.70326e-05
0.00933689
0.0101399
0.0271447
0.00951992
0.0155987
0.0087638
0.0100984
0.205738
0.0098991
0.00937215
0.00269091
0.00946899
0.0212262
0.00377754
0.0893063
0.00316054
0.00842349
0.00968698
-0.00446871
0.0112977
0.0108862
0.00137278
0.0154688
0.0118585
0.00540031
0.0041979
-0.00468573
0.00494962
-0.00126037
0.0022481
0.0209303
0.0115804
-0.00354755
0.0105635
0.00767407
0.00419364
0.0102959
0.00541898
0.00860382
-0.0154067
0.0126457
0.00661503
0.0171765
0.010105
0.00464158
0.00275903
0.00670152
-0.0117828
0.0111512
0.0100695
-0.000481578
0.00579709
-0.0589636
-0.0143995
0.0115677
-0.00591239
0.00885058
0.00769149
0.00949248
0.00851412
0.824446
0.00912294
-0.0298751
0.0062049
0.0071284
0.00994553
0.0107838
0.0076461
0.0166903
0.0119941
0.00443794
0.0084459
0.00529841
-0.00109037
0.00933998
0.00889952
0.00781722
0.00703806
0.00551423
0.00654551
0.0175383
0.00681636
0.142531
0.00903606
0.00712409
0.00502949
0.0133983
0.00985174
0.00534754
0.0115243
0.0107657
0.0288808
0.119984
0.00848706
0.104899
0.102094
0.132504
0.133382
0.193325
0.00616673
0.0042935
0.00397934
0.00425636
0.0101283
0.00290581
0.00394919
0.0113477
0.00936808
0.0420292
0.042532
-0.0544619
0.0316523
0.0369201
0.00278974
0.0155509
0.00110366
0.00906985
0.012935
0.0044223
0.00822766
0.00858415
0.016893
0.0104167
0.00575525
0.00868293
0.00379779
0.0144007
0.0078215
0.00752524
0.0111689
0.00884032
0.0134497
0.0039417
-0.0768602
0.0419294
0.00542398
0.00239982
0.0085388
0.00788603
-0.00905565
0.00598549
0.00356742
0.0181956
0.00399643
0.00927001
0.0113666
0.00323526
-0.000361748
0.00666439
0.0107179
0.00690901
0.00756154
0.010262
-0.00670494
0.000523926
0.00824134
-0.000850315
-0.00107148
-0.235722
-0.0186754
0.00922545
0.0121334
0.00121218
0.0180671
0.0196889
0.00400565
0.0171063
0.00779448
0.0196406
-0.00699373
0.00375203
0.015886
-0.289492
-0.350072
0.0103013
0.00847707
0.00418876
0.00646818
0.0038266
0.00098365
0.0113901
0.015495
0.00633598
-0.00586715
-0.00106118
-0.00414817
-0.0267356
-0.0727448
-0.034982
-0.141076
-0.0465164
-0.125255
0.00165106
0.00125024
0.000908045
0.0010752
0.0101054
0.0155548
0.00507839
0.00433671
0.00835697
0.00879578
0.0421426
0.032791
0.0185428
0.0302243
0.00588463
0.111725
0.0887321
0.110999
0.0111059
0.00343121
0.00284896
-0.076499
0.00810835
0.00564604
0.201295
0.00618403
0.00692409
0.0101903
-0.120215
0.00345189
0.012632
0.00820839
0.010055
0.00617206
0.00934878
-0.0292717
-0.000985012
0.0122768
-0.000676135
5.10187e-05
0.17241
0.0050373
0.00546721
0.00359791
-0.00274441
0.00336274
-0.00210541
-0.0116968
-0.0407711
0.00597024
0.00320812
0.018715
0.000708167
-0.145246
0.00960611
0.00812843
0.00741942
0.00399357
0.0100602
0.0102729
0.014687
-0.0398811
0.0416685
0.00993867
0.0106691
0.0107295
0.0074876
-0.014604
0.00242662
0.0223358
0.030973
0.0327921
0.0268622
0.0289969
0.0205359
0.0326319
0.0262646
0.00511319
0.00804394
0.000178328
0.0107854
0.0084625
0.00870564
0.00738773
0.00866152
0.009351
0.00830646
0.0110168
0.0605992
0.00413088
0.0108083
0.0104699
0.00785407
-0.073667
0.00556691
0.00826943
0.013305
0.081929
0.174178
0.0099739
0.0174342
0.00541422
-0.0193173
0.00853419
0.00986277
-0.0855371
0.0122268
0.0108644
-0.817698
-1.21937
0.0101162
0.00514137
0.0115113
0.00443849
0.00981527
0.0149583
0.0049892
0.00914285
0.00921217
0.0127294
0.00248649
0.00376654
0.0107684
0.0122611
0.0148266
0.00127455
-0.0367675
0.0108658
0.00897149
0.00734741
0.00167363
0.005948
0.00323289
0.0170302
0.00998021
0.00292678
-0.0422555
0.0366404
0.0118874
0.00713501
0.00938712
0.00996794
0.0667021
0.0979252
0.029394
0.0269218
0.0326728
0.00130233
0.00718447
0.00138724
0.00978743
0.000815143
0.0111448
0.0119749
0.00878394
0.00926362
0.00385283
0.00392654
0.00355828
0.0141758
0.00287348
0.0020609
0.00884983
0.0105398
0.00319051
0.00367507
0.00938469
0.00825124
0.00401535
0.0109458
0.0166735
0.011087
0.0158005
0.0079698
0.0146322
0.0105122
0.00981171
0.00730501
0.00736573
0.0159606
0.00218966
-0.0114848
0.0116367
0.0217705
0.0101347
0.00466507
0.00668235
-0.0123721
0.0179736
0.0127037
-0.0166403
0.00336256
0.00797734
-0.00800791
0.00106455
0.00465077
0.010028
0.00193131
0.000366925
0.00216552
0.000209982
0.00202684
0.00103869
0.00360015
0.0146647
0.0100845
0.136213
0.00657862
0.131935
0.00257115
0.110803
0.0884751
0.0472165
0.0334358
0.0053575
0.0204384
0.00703463
0.00608033
0.00288292
0.0111727
0.00616727
0.0105701
0.00879668
0.010017
0.00582751
0.00206133
0.011446
0.00628448
0.0233257
0.0156239
0.0105533
0.0149348
0.00531284
0.00891747
0.00998071
0.0109557
-0.0175823
0.0077611
0.0113492
-0.0172644
0.0038278
0.00373397
0.0029264
0.00277197
0.00972722
0.00845015
0.00640175
0.00986491
0.00182209
0.0107499
0.0229839
0.0225702
0.0417854
0.0452849
0.0426941
-0.0612787
-0.0555688
0.00227812
0.00910818
0.00520944
-0.00426636
-0.0792668
0.00883672
0.00962303
0.00942598
0.0212733
0.0068796
0.00854052
0.0102461
0.0127593
0.00538484
0.0188918
0.0120427
0.0232245
0.0169594
0.0321823
0.0164645
-0.000937176
0.00793328
0.00974677
0.00797409
0.00509527
0.000300565
0.00737694
-0.00855185
0.00209361
0.0087247
0.00100629
0.0104309
0.0100625
0.0101027
0.0109167
0.0215741
0.00879057
0.0044903
0.008158
0.00872593
0.0080737
0.00813648
0.020584
0.002613
0.00945743
0.00383927
0.0132631
0.00624963
0.0101069
0.00440385
0.00423927
0.0116027
0.0103624
0.00197812
0.0149027
0.0105508
0.00207115
0.00137418
0.0020157
0.0107243
0.00891239
0.0041917
0.0110847
0.0103831
0.00689888
0.00401672
0.00493636
0.00856045
0.0072903
-0.0265346
0.00592775
0.00703155
0.00955541
0.00436371
0.0142391
0.0211127
0.0118025
0.0112894
0.00303389
0.0099803
-0.00200159
0.010448
0.00746074
0.00453837
-0.0125289
0.0135513
0.00945717
0.00901205
0.0094853
0.00448745
-0.00216626
0.0157356
0.00858153
-0.00318083
0.00504089
-0.00287043
0.0112624
0.0139431
0.00645151
0.00735977
0.0065948
0.00628322
0.00498568
0.00268389
0.0100316
0.00783105
-0.0508556
0.0124495
0.013186
0.0123467
0.0122453
0.0120285
0.00181587
0.0126663
0.0123034
0.0147517
0.00364335
0.0032696
0.0225402
0.00637897
0.0053214
0.0183224
0.00934917
0.0104074
0.00989391
-0.00671647
0.0390824
0.00948782
0.010355
0.0130013
-0.194539
0.0453075
0.0134806
-0.304519
0.0115443
0.0604387
-0.461015
0.00398454
0.0119789
0.0114016
0.0112727
0.00206222
0.0110856
0.0959999
0.0101974
0.0110771
0.0118081
0.00322149
0.00984628
0.00435363
0.00283553
0.00967369
0.0221773
0.00743389
-0.00763661
-0.0278135
0.0630902
0.0621786
0.00163636
0.002138
0.00602851
0.146122
0.00518172
0.183987
0.141813
0.111507
0.0399589
0.103388
0.00550132
0.0269292
0.0474069
0.0392307
0.0514397
0.0123614
0.0472535
0.00858896
0.0124691
0.0100675
0.00282616
0.0126452
0.00534823
0.0108244
0.00174689
0.00362839
0.00726606
0.00233991
0.0119452
-0.00971453
0.00519425
0.00292663
0.0105041
0.00903562
0.00452864
-0.0128819
0.00430305
0.00960997
0.00217508
0.00599868
0.0484177
0.0427337
0.000240451
0.0699134
0.00291192
0.00855052
0.00948545
0.0348155
0.00132578
0.00307934
-0.00672002
0.0111735
-0.0154857
0.00911321
-0.0171375
0.0118173
-0.161548
-0.0734527
-0.0909758
0.0148491
-0.00688979
-0.151585
-0.0191521
0.00733676
0.0102806
0.00501395
0.00225083
-0.00037654
0.0111846
0.00430477
0.0152141
0.0114812
0.0105021
0.00253498
-0.0129479
0.00452452
0.00168541
0.00160962
0.00291257
-0.00468258
0.00862307
0.0195676
0.00411578
0.00548049
-0.0344169
0.00372382
-0.0713755
0.0102327
0.00706117
0.000564897
0.0103843
0.148745
-0.0217718
0.0111323
-2.742e-05
-0.0714711
0.00031013
0.0130061
0.0514707
0.00533413
0.0470431
0.00348024
0.00162661
0.0100964
0.000706321
0.0140685
0.00320994
0.00436398
0.00581056
0.00861882
-0.0378073
-0.0107831
0.00922888
0.0100905
0.00834885
0.0132612
0.00444567
0.0133055
0.0117251
0.0541809
0.273278
0.272528
0.126028
0.0426811
0.0109881
0.158215
0.00930839
0.0290687
0.0224058
0.0130942
0.0113385
0.0328944
0.00355296
0.0103379
0.00208948
0.00888456
0.00447832
0.00274564
0.0172725
0.00439134
0.00838521
-0.0208009
0.00521656
0.00975916
0.0788682
0.00689529
0.00832446
0.0092853
0.00263675
0.0133899
0.00576122
0.00680034
0.00815878
0.0149358
0.00694299
0.0499455
0.0420736
-0.07879
0.272988
0.0914582
0.00550433
-0.0032577
0.00139876
0.00853602
-0.00791791
-0.00655574
0.00917706
0.0146953
0.00512519
0.0137835
0.00355464
0.00999446
0.0101744
0.00372452
0.00954504
0.00517254
0.0114828
0.00924431
0.107983
0.00410629
0.00752842
0.0113575
0.012398
0.0107589
-0.00510502
0.00615199
0.00527084
0.00214455
0.103269
0.160646
0.00476768
-0.000309112
0.0101414
0.00536865
0.00437151
0.000160912
0.00960706
0.00598997
-0.00885435
-0.00410728
0.0115667
0.000359192
0.0383802
-0.0620842
-0.0100689
0.00277567
0.0508497
-0.014971
0.0121979
0.000397619
0.0100062
0.00797942
0.00965357
0.0423615
0.0229182
0.0469957
0.00810253
0.07189
0.00941488
0.0110488
0.00777598
0.0559572
0.228873
0.114671
0.218952
0.251065
0.272051
0.237447
0.189716
0.142431
0.251295
0.011469
0.00453741
0.0130629
-0.0161366
0.00952845
0.0134167
0.0107305
-0.0254234
0.00411268
0.00890837
0.00355467
0.0095948
0.00860259
0.0103981
0.00797999
0.00844682
0.00982881
0.01294
0.023756
0.0112205
0.00266962
0.0054896
0.0103433
0.00521496
0.00387362
-0.0449665
0.00974018
0.00406181
0.00742103
0.0146197
0.12795
0.000710215
0.00539889
0.00920488
0.00974827
0.00850932
0.0119385
0.00888551
0.0128275
0.0108643
0.214017
-0.338726
0.0100866
0.179966
0.0344108
0.00978874
0.0181983
0.0190403
0.0224148
0.00965097
0.00780451
0.00948901
0.00578973
0.0239075
0.00286282
-0.00652764
0.00264713
0.224161
0.00598781
0.204164
-0.0126978
-0.0195848
0.217357
0.0105721
0.213369
0.0125443
0.0100729
0.00930791
-0.00110693
0.0215102
0.000962718
0.00320263
0.00384613
0.00136915
0.0055673
0.0154594
-0.0669153
0.00439341
0.00408036
0.00534288
0.00481701
0.00892383
0.00626877
0.0117784
0.00292608
0.00240836
0.00944473
-0.0341409
0.00985018
0.00996108
0.0101542
0.0073345
0.00372706
0.00666818
0.00976417
0.00511011
0.00986977
0.00265343
0.0121372
0.00393893
0.00778685
0.00642347
0.00913908
-0.00670876
0.0102379
0.00900499
0.009421
0.00588936
0.00969941
0.0227354
0.001843
0.00906516
0.00111269
0.0140357
0.00875806
0.00986307
-0.00978243
0.0123208
0.00894482
0.0187582
0.0102919
-0.081416
-0.0679595
0.00256775
0.00922766
-0.0013195
0.000312124
0.103712
-0.00297406
0.0876489
0.00318409
0.00504605
0.005499
0.00608388
0.00364555
0.0102779
0.00705351
0.00214603
0.00994039
0.00962447
-0.00813087
0.010286
0.00352242
0.00309816
0.00790673
0.00917353
0.0103869
-0.0292955
0.00602689
0.00976054
0.00461736
0.0195606
-0.388271
0.0296818
-0.00801551
0.00836575
0.0049529
0.0101743
0.010502
0.0410463
0.00992071
0.0408398
0.00910952
0.0023919
-0.00477713
0.0035485
0.0103176
0.00514817
-0.0515025
0.011232
0.00958904
0.0094514
0.138315
0.00531253
0.00297337
0.0114976
-0.0164514
0.0148586
-0.0503053
-0.0820129
0.0212284
0.0256285
0.019436
0.0273025
0.0141174
0.0141677
0.000593132
0.00425265
0.00996955
0.243076
0.0127826
0.00932364
0.00166784
0.00646428
0.0114767
0.00375105
0.0112349
0.00428889
-0.0115776
0.00355164
-0.0610738
-0.00264936
-0.0074611
-0.0828201
0.0157403
-0.00342783
0.00181919
0.0209622
0.00387775
0.0166928
0.0060813
0.0101272
-0.00338385
-0.0188408
0.00235156
0.011193
0.0136427
0.00738326
0.0100047
0.00327007
0.0051808
0.00894499
0.00489408
0.173925
0.00137665
0.00447014
0.011395
0.0108061
0.00632881
0.00488783
0.01681
0.0106872
-0.0198453
-0.319917
0.0147971
0.00459965
-0.00565852
0.00456101
0.00479921
0.00982412
0.0159366
0.00413934
0.0170262
0.00786095
0.108978
-0.204242
0.010964
0.00594999
0.012759
-0.00422415
0.00898148
0.00527096
0.000636609
0.00933201
0.000352763
8.85844e-05
-0.00078247
0.00351317
-0.00949423
0.00908631
0.0120002
0.00552272
0.00130989
0.00327598
0.00792146
0.0104609
0.00413808
0.201096
0.00485665
-0.000685791
0.00193276
0.00628292
0.0112471
0.00636336
0.0109903
-0.0564523
-0.0165033
0.00923373
0.0100645
0.0018578
-0.000465118
0.0096436
0.00114026
0.0104559
-0.00316348
0.00759789
0.00878878
0.00481452
0.0105561
0.0176851
-0.000574756
0.00444778
0.0171753
0.00911377
-0.0303806
-0.0021993
-0.0355339
0.0102317
0.00595133
0.000437057
0.0155133
0.00715265
-0.0430766
0.00746896
0.00334982
0.00115965
-0.00312667
0.00887947
0.159292
0.0124258
0.00797317
0.00437104
-0.00202402
0.00642744
-0.0017986
-0.0109927
0.00113434
0.0106799
0.00532965
-0.00261112
0.00251667
0.0155542
0.00809134
0.00892993
0.00313629
0.00162889
-0.00181898
0.0102623
0.0170638
0.00948596
0.018771
0.00122456
0.00032974
0.000486642
0.00337017
0.00847431
0.0097514
0.00599137
0.00924716
0.00969088
0.0138764
-0.0377987
0.009962
0.0035941
0.00904776
-0.0384247
0.0165302
0.0129109
0.0107711
-0.0256248
-0.00503709
0.0137086
-0.0122624
0.00329625
0.0194915
-0.00498473
0.0140425
0.0113843
0.0140723
0.00996758
0.0275552
0.00994478
0.0101371
-0.0452311
0.00633216
-0.0156559
-0.0261356
-0.0255786
0.000579999
-0.000244939
0.00243647
0.0145341
0.00167834
0.000258609
-0.000202827
-7.33334e-05
-0.000953546
-0.000104377
0.00104577
0.00797948
0.00584701
-0.190402
0.021909
0.000155438
0.0454575
-0.0189335
0.00924073
0.0048111
-0.0503586
0.00331909
0.0104835
-0.01653
0.00119121
0.00751206
0.000950156
0.00899735
0.000342459
0.0204703
0.00346509
0.00328274
0.00016236
0.00944277
0.0122499
0.00704676
-0.039774
0.00015357
0.00666251
-0.059108
0.00702106
0.0107558
0.00443719
0.0101743
0.00569652
0.00487203
0.00427078
0.00340341
0.00105639
0.0148287
0.00945352
0.00624558
0.00627828
-0.00327182
0.00344059
0.0104227
0.0137848
0.00992553
0.00405814
0.0242617
0.00940201
0.00420042
0.00893436
-0.0402069
0.00386974
0.00288864
0.00487907
0.00175867
0.00237447
0.00648689
0.0060575
0.00041393
0.00356899
0.0100756
0.0113559
-0.0108178
0.0103349
-0.00427995
0.00451401
0.0117631
0.00748933
0.00202936
0.00279334
0.0089517
-0.0142073
0.00429504
0.00605581
0.0124492
0.00283589
0.125711