/*--------------------------------*- C++ -*----------------------------------*\
  =========                 |
  \\      /  F ield         | OpenFOAM: The Open Source CFD Toolbox
   \\    /   O peration     | Website:  https://openfoam.org
    \\  /    A nd           | Version:  11
     \\/     M anipulation  |
\*---------------------------------------------------------------------------*/
FoamFile
{
    format      ascii;
    class       surfaceScalarField;
    location    "100";
    object      phi;
}
// * * * * * * * * * * * * * * * * * * * * * * * * * * * * * * * * * * * * * //

dimensions      [0 3 -1 0 0 0 0];

internalField   nonuniform List<scalar> 
37779
(
-0.0527839
0.146789
-0.0982262
0.00424039
-0.321682
0.202922
0.210595
-0.0916856
0.0089947
-0.209843
0.109964
0.0909215
0.000413603
-0.0271388
0.0176974
0.00905884
-0.0283076
0.0539975
-0.347342
0.224878
-0.333202
0.117102
-0.00846607
-0.0125574
-0.0573217
0.0541105
0.0157683
-0.000828765
-0.00416656
-0.0177301
0.0227277
0.00952669
-0.0118492
0.0205022
-0.0181992
0.000527361
0.00992634
0.00774537
-0.0182028
-0.000650381
-0.051784
0.0680832
-0.0156475
0.0131084
-0.00587933
-0.00226973
-0.00495176
-0.00921196
-0.0474805
0.00390126
0.103158
-0.0995041
0.131062
-0.134617
0.00211884
0.0160641
-0.00963298
-0.00857751
0.0143576
0.05696
0.0249608
-0.0265069
-0.161309
0.162806
-0.0177397
0.0370008
-0.0246707
0.00541369
0.0301927
0.0281247
-0.017856
-0.0404693
0.0351239
0.00799631
-0.00681133
-0.0362908
-0.0401765
-0.0618342
-0.0308956
0.132822
0.0280075
0.0328577
-0.0506628
-0.0102831
-0.0795748
-0.106991
0.10305
0.083643
-0.082639
-0.0721067
0.0694887
0.0852612
0.0214542
0.0160517
0.00809004
0.00619875
-0.016852
0.00266222
-0.0400133
0.00751473
0.0199334
-0.00339072
-0.0043633
0.000442381
0.00731356
-0.00984691
0.00100249
0.00545393
-0.00455115
-0.00142044
0.00160708
-0.017965
0.0339272
0.0244849
-0.00282048
-0.0115798
-0.0135682
-0.029795
0.00931279
0.0340529
0.00527623
-0.0170028
0.00890973
0.0149862
-0.059835
0.0421652
0.002681
0.0420677
-0.0274793
0.0258042
-0.0403693
0.0407862
-0.0106479
0.00273295
0.0235741
0.00883755
-0.0130228
-0.019339
-0.0996907
0.0586569
0.0148052
0.0261648
0.046756
-0.00213802
-0.00253839
-0.00585922
0.00645199
0.0345509
-0.443137
0.0774613
0.176268
0.18941
0.0176321
0.0242013
0.0828392
-0.124714
0.00668016
0.0029038
0.0043847
-0.0139517
-0.180009
0.16862
0.0482845
-0.0368001
0.0199175
-0.1929
0.190592
0.0145415
-0.0462474
0.058742
-0.0269779
-0.012602
0.0342595
-0.0558745
0.0342186
-0.00114303
0.00219409
0.00612337
0.00101221
0.00187389
-0.00402909
0.0929494
-0.0131855
-0.0620343
-0.0177034
-0.0523071
0.102304
0.0138121
-0.0634445
-0.0671181
0.091568
-0.0877944
0.0633843
-0.0526857
0.0425823
0.00386015
-0.0100116
0.0772574
0.0122977
-0.092439
0.090759
-0.010619
-0.029096
-0.0150647
0.0264201
-0.00817035
0.026698
0.028243
-0.00962414
0.0165062
-0.00837977
0.00148328
-0.0127753
0.0136674
-0.016059
0.0151815
-0.0637598
0.0540079
0.0263786
-0.016621
0.330372
-0.0716859
-0.177235
-0.0814374
0.0301275
-0.0217142
0.0126096
0.0138183
-0.0116074
-0.0148068
-0.107695
0.0576448
-0.00345928
0.0534445
-0.0189534
-0.0128915
0.034561
-0.00268533
-0.0407845
0.0141653
0.00716921
0.0194477
0.0204328
-0.0217515
-0.00684908
0.0535
-0.063009
-0.0300999
0.0396127
0.0435075
-0.0377979
-0.00655188
0.000837032
0.0208364
0.0289263
-0.0261847
0.0111536
0.00800819
-0.0377537
0.018617
0.0063804
0.0229143
-0.0615948
0.0322888
0.131854
-0.114608
0.0887146
-0.105968
0.0948036
-0.026044
-0.148147
0.0793282
-0.023017
0.0289495
0.0209959
-0.0269289
-0.0486757
0.0301414
-0.00448252
-0.00494128
0.0166397
-0.0204415
0.00876066
0.0363157
0.0175907
-0.0195816
0.0775458
-0.219534
0.0661333
0.0758967
0.0699242
-0.132486
-0.0356634
0.00139786
0.0150082
-0.00385606
-0.0125536
0.0942401
0.0150193
-0.104761
-0.00437556
-0.213788
0.0879694
0.00476658
0.0231325
-0.0771902
0.0566602
-0.00260037
0.00458381
-0.0295818
0.0124458
0.0125733
0.0633702
-0.0567809
-0.00782399
0.00123953
-0.0248071
0.00403884
0.0212955
-0.119877
-0.0675625
0.132315
-0.000733585
0.0259317
0.010632
-0.0358352
-0.120125
0.0631155
0.0451299
0.0118843
-0.0183519
0.183406
-0.0839033
-0.0811465
-0.109896
-0.0474853
0.0496429
-0.0120883
0.035715
-0.026295
0.00266079
-0.00248674
0.0773894
-0.0205316
-0.0543706
0.0405217
-0.00454432
-0.00119956
0.0229014
-0.0171576
-0.2121
0.121347
0.0997365
-0.150913
0.0262336
0.256572
-0.0984015
-0.173946
0.0790171
0.193435
-0.0068627
-0.0203559
-0.00430203
0.0315196
0.0119097
-0.0701861
-0.0414673
-0.0402725
0.440584
-0.17548
-0.0117967
0.112276
-0.041267
-0.188404
0.136027
0.0672824
-0.0148894
-0.00199519
0.00674234
0.0442062
-0.048932
-0.00212583
0.110595
-0.0580412
0.156853
-0.0501617
-0.00353252
-0.0747946
-0.0680524
0.108751
-0.0213353
-0.020424
0.00470828
0.037081
0.0202862
-0.048148
0.000444587
0.0274126
0.0379412
0.000349514
-0.00804859
-0.0302441
-0.0398641
0.0376244
0.0134021
-0.00136056
0.019295
-0.0579178
0.0399845
0.0196817
0.0741212
-0.0951621
-0.0592767
-0.213792
0.053522
-0.0415861
0.0310102
0.029878
-0.160621
0.138718
0.0609476
-0.133854
0.0575548
-0.157219
-0.0193641
-0.00805283
0.0205503
0.00433572
0.00935196
-0.0108543
-0.00283414
-0.0118066
0.029541
0.00635442
-0.0233644
0.026362
0.00288707
-0.0265364
0.0257766
-0.00213337
-0.0116437
-0.100636
0.0296416
-0.0127051
-0.00448419
-0.0108871
0.0281126
0.00592916
0.0509789
-0.00358608
-0.0533183
0.0180405
-0.014108
-0.00295497
-0.000973733
0.0760585
-0.016275
-0.0392908
0.01598
0.000997382
-0.0144614
-0.0349407
-0.058644
-0.0863576
0.0274786
-0.0447598
0.0888489
-0.0715701
-0.305883
-0.0547696
0.0276379
0.0508686
-0.0521846
0.0360906
-0.0347798
-0.0798354
0.0334275
0.0897461
-0.0433424
0.00428069
0.0706292
-0.139577
0.0647011
-0.0702473
0.0498225
-0.00998006
-0.0671251
0.0517452
0.0253689
-0.00323572
0.00258906
-0.00345786
0.00410565
-0.0160276
0.00183282
0.0109596
0.105942
-0.0832551
-0.0442859
0.021605
0.0466768
0.041811
-0.141531
0.0530232
-0.00796498
0.000249209
0.0126816
-0.00495683
0.017356
-0.0322522
0.00997869
-0.0084643
0.0820622
-0.0895803
0.0160148
-0.00840205
-0.00560735
-0.0253509
0.0392285
-0.0111805
0.0129325
0.0125461
-0.0142981
-0.023869
0.0157068
-0.00301799
0.0114329
0.00778607
0.025792
-0.0611168
0.00387933
0.0314438
-0.0304592
-0.0181939
0.00786401
-0.000476552
-0.06279
-0.0349838
0.174006
-0.169643
0.0422666
0.00300963
-0.00254613
-0.00338711
0.0029258
-0.00576557
0.0125485
-0.00377318
-0.00478977
-0.00713297
-0.0263695
0.0383078
0.0588182
0.0583714
-0.0887758
-0.0284207
-0.00246731
0.00998766
-0.0128391
0.00564614
-0.438653
0.089189
-0.0217455
0.371053
0.0422491
-0.0277592
-0.0247496
0.0102642
0.0924876
0.0803099
-0.0780279
0.00431101
0.00833878
-0.00502602
-0.00762451
0.00547422
-0.00293776
0.00177338
-0.0424874
-0.131596
-0.00065788
-0.000856296
0.00985361
0.00845997
0.00343412
-0.00642055
-0.0538746
-0.0483636
0.0336413
0.0685486
0.00573935
0.00206246
0.000836916
0.000646493
0.00466445
-0.00614705
-0.0475239
0.0147671
0.0121139
0.0206533
0.00432235
-0.0084948
-0.00944356
-0.00722057
0.00292522
0.0086207
-9.08461e-05
-0.00811796
0.000989274
0.120924
-0.141747
0.0158221
0.00513446
-0.0158162
-0.00509341
-0.0511931
0.0421226
-0.021547
-0.0592151
-0.108387
0.0197922
-0.0244233
0.113027
-0.0159381
-0.0135482
0.0101851
0.0878485
0.0210491
-0.126649
0.0177587
0.0927916
0.00203102
0.00346558
-0.0982844
0.0216192
-0.165422
0.130226
-0.233982
0.0962623
-0.301098
0.00262425
0.0248812
-0.0094604
-0.0455563
0.0311142
0.0225283
-0.00809168
0.592484
0.284064
-0.361021
-0.515623
-0.0148848
0.0152787
-0.0104864
0.0100809
0.0283212
-0.00275438
-0.0117751
-0.013763
-0.0145976
0.0186843
0.0022535
0.0136994
0.0785701
0.00239901
0.00736994
-0.0382445
0.0284802
0.0564323
-0.159164
0.00333353
0.0502785
-0.0440641
0.0204324
-0.0266462
0.00340932
-0.00735535
-0.0157019
0.0196563
0.0327717
0.0330298
-0.00310094
-0.0626759
-0.0139858
0.00252503
0.0160229
0.0224018
-0.0313989
0.00493243
0.00406248
-0.106454
0.0740645
0.0369801
-0.00459535
0.00853631
0.00936479
0.0044991
0.0126993
-0.00219414
-0.00262194
-0.00788614
-0.00900997
0.0308889
0.00366194
-0.0255435
0.00771149
0.00261459
-0.00262827
0.00670556
-0.00669337
0.00394036
-0.00352093
0.0180484
0.0036346
-0.013148
0.0079046
-0.0371152
0.012521
0.0166707
0.0558904
0.015971
-0.0126742
-0.0592578
0.179017
-0.138936
0.00238263
-0.0424993
-0.220287
-0.0706047
0.186763
0.0484275
0.046633
-0.0345171
-0.0605422
0.00418741
0.0088238
-0.0869767
0.0739481
0.0080235
-0.00372883
0.00247306
-0.00676737
0.0436547
-0.000148439
0.0320253
-0.0319246
-0.00971551
0.0471097
0.0705044
-0.0531701
-0.0645545
0.00899962
-0.0318164
0.0540812
-0.0313254
-0.0283763
0.117589
-0.0456883
-0.0435284
0.0238548
-0.0162918
0.0498773
-0.0574268
0.00122581
-0.0646775
-0.0163882
0.0265961
-0.0146207
0.0229815
-0.0349556
-0.174209
0.122975
0.0395917
0.0179237
0.027891
-0.0371994
-0.00861836
-0.00868974
0.0385231
-0.00896763
0.0262154
-0.0373808
0.0133284
-0.00216128
0.0338639
-0.00686292
-0.000785027
-0.0300892
0.0108935
0.018688
0.00279402
-0.0187811
-0.0026965
0.0225706
0.0123989
-0.00110502
-0.00545637
-0.00404184
0.0241158
-0.0146092
-0.180467
0.239595
-0.0594538
-0.0459625
0.0439147
-0.0220479
0.0222867
0.00787995
-0.0115866
0.0108652
0.00656925
-0.00583021
0.00739437
-0.0124284
0.0042819
0.000751977
0.0211573
-0.0421103
-0.0327454
0.0124545
0.0702373
-0.00758152
-0.0751068
0.0238804
0.00467136
-0.00875494
-0.000993396
-0.00268132
-0.000348132
-0.0138319
0.00542532
0.0852717
-0.00834899
-0.0234212
-0.0360852
-0.0232639
0.0859462
-0.00946311
0.0385104
0.0234396
-0.0525452
0.00973895
0.0181435
-0.00723206
-0.0206375
0.0257395
-0.0113851
-0.0229238
0.00858281
-0.00185867
-0.112131
0.11367
-0.00780386
-0.00365042
-0.0102018
0.0216864
0.0101013
-0.0035457
-0.0115344
0.00549151
-0.0349014
0.00826272
0.00125265
-0.0222968
0.0127769
0.00880839
-0.00579932
0.00524726
0.016909
0.0144605
0.00552213
0.000308792
-0.00315955
-0.00268582
0.0134787
-0.00816648
-0.0238914
0.0185787
0.00726395
-0.0197842
0.0117773
0.00151442
-0.000462729
-0.00152532
0.000473555
0.000301983
0.00336017
-0.0495074
-0.0668726
-0.00348856
-0.00438269
-0.00322937
0.00648149
0.0012163
0.152434
-0.117133
-0.0228454
0.182199
-0.131232
-0.113658
-0.0224808
-0.0258579
-0.00714268
-5.43611e-05
0.00302969
-0.030514
0.0662052
-0.0220546
-0.0136374
-0.0407768
0.010101
-0.00917927
-0.00324755
0.00320305
-0.0306002
0.0306595
-0.0607129
0.0150123
0.0448446
0.000855694
0.0698564
-0.164712
-0.038058
0.133136
0.106864
-0.15895
-0.0234582
0.0755305
-0.00963171
0.0156869
0.0118623
-0.00895912
-0.0212154
0.00083934
0.0293507
0.00265991
0.0562486
-0.00801502
-0.0508854
-0.152976
0.0225364
0.0208605
0.109576
-0.0096929
0.0118106
-0.0165225
0.0143898
-0.0454893
0.0591997
-0.014357
-0.0133521
0.000752858
-0.0353962
0.0479915
-0.0164296
-0.0110674
0.00618406
0.00910082
-0.00877107
-0.0170209
0.0167364
-0.0146974
0.00595232
0.0462195
-0.0374732
-0.0347069
0.0265259
-0.035721
0.0438901
-0.0795911
-0.12829
-0.0431389
0.250994
0.0532541
-0.035466
0.0249179
-0.0427185
0.0140624
-0.0178549
0.00918023
-0.00545175
0.0225107
0.0262282
-0.0744005
0.0256734
0.0978156
-0.0762048
-0.145176
-0.00389327
0.0184711
-0.00556175
-0.00901795
0.034505
0.00570636
-0.00674867
-0.033454
-0.00442946
-0.00111329
-8.67961e-06
0.00554998
-0.0129669
0.0430574
0.00443651
0.0038565
1.86626e-05
-0.00830527
0.00732971
0.00107662
-0.0630396
0.0546398
0.0822681
-0.0404442
-0.0268386
-0.157431
-0.456331
0.170631
-0.0135048
0.0048057
0.0213334
0.0181382
0.00573103
-0.0334119
-0.0700198
-0.0411166
0.0572861
-0.0955004
0.0040914
0.0623126
0.0517875
-0.0284285
-0.0262303
0.00287638
-0.0208996
-0.0197415
0.0924353
0.00877106
-0.000630559
-0.0175847
0.00944561
0.0122198
-0.0299403
-0.0163815
-0.00534648
0.0182279
0.00349828
-0.0132429
-0.0242765
0.0211374
0.0276571
0.0260419
0.00214611
0.00749787
-0.00183012
0.0030952
-0.000528787
-0.0178362
-0.0132599
0.00267265
0.00448972
0.00462363
-0.00974252
-0.0458149
0.0149884
-0.0163485
0.00720534
-0.0170801
-0.0275979
-0.0065841
0.0624352
-0.0515071
0.0174907
-0.0284189
0.00698179
0.00139727
-0.00570498
-0.0026743
-0.00774751
0.00596847
0.00876059
0.0179344
0.0221091
-0.00751856
0.18287
-0.0769243
-0.0157789
-0.0901712
0.0281235
1.86386e-07
-0.00960294
-0.0185141
-0.00201285
0.0139273
-0.00125325
-0.0381029
-0.0863247
0.124998
-0.000507746
-0.162158
0.0385563
0.0565073
0.0663032
-0.026259
0.0187732
0.0373286
0.0633958
-0.0765602
-0.0202171
0.0530098
-0.066776
0.0529448
-0.029841
-0.0483843
0.0384549
0.0272797
-0.0528702
-0.0128626
-0.042961
-0.00265563
0.0483148
-0.0508366
-0.0222009
0.0175997
0.05547
0.0375318
0.00301745
-0.0399378
-0.000605585
-0.00140699
0.0331644
-0.0171802
0.00231469
0.00297035
-0.00790382
0.00262406
-0.122935
0.179736
0.0293822
-0.0335623
0.0188204
-0.097095
-0.0543456
0.00775069
0.143894
-0.00180274
-0.0120437
0.00522968
0.00863434
-0.0314634
0.00589749
0.0258862
-0.000304409
-0.00500433
-0.0246384
-0.107281
-0.297059
0.478851
-0.0744619
-8.96933e-05
0.00352528
-0.0107927
-0.0686729
-0.0491861
0.00948137
-0.0813716
-0.0404001
0.227704
0.00044907
-0.000343881
-0.0109882
0.0108849
0.0470177
-0.039848
-0.00575869
-0.0608626
-0.0397029
0.0897151
0.0108509
0.00435861
-0.0431243
0.0436063
-0.00484134
0.00872154
0.012865
-0.0172315
-0.032151
0.0268804
0.00507489
0.0448348
-0.0123691
0.00791265
-8.82818e-05
0.0110483
-0.00630427
0.0599428
-0.0280681
-0.0229366
0.0231568
-0.0309426
0.032436
-0.024679
0.00143987
0.00447725
-0.00340017
-0.00251558
0.00388765
-0.000975295
-0.00147246
-0.000400405
0.00616425
-0.0239663
-0.0192622
0.017054
0.0261739
0.0177558
-0.0310988
0.0605122
-0.0471753
0.0473095
-0.0556369
-0.0241597
0.0324869
-0.00850066
-0.00254909
0.0533019
0.00642011
0.00647964
-0.000138448
-0.0126585
0.0709684
-0.0248076
-0.0343135
0.0075142
0.00549019
-0.00631107
5.61643e-05
0.0106233
-0.0255608
0.0526428
0.429753
0.263346
0.0941163
-0.334106
-0.023316
0.0277319
-0.0116964
-0.0758274
0.0146625
0.0150282
0.0461309
-0.345948
0.188567
0.0603392
-0.0713795
0.0125933
0.0529093
0.0154935
-0.0429496
0.0354882
-0.00733233
-0.0431794
-0.00432817
0.054885
-0.04274
0.0463491
-0.04655
0.0512912
0.00446916
-0.0990227
0.0432698
0.0880685
0.0718695
0.0349157
-0.20407
0.0972848
-0.0961021
0.0420564
0.0309507
-0.0307038
0.01933
-0.0195781
0.173904
-0.137318
-0.00910872
-0.00153057
-0.00323809
0.0527719
-0.0480054
0.0745477
-0.168718
-0.0173912
0.111567
-0.0629839
-0.00904779
0.0536939
0.10645
-0.0687112
0.0428466
0.138155
0.0709403
0.0702557
-0.038341
-0.102861
0.0738251
-0.276971
0.0344296
0.0343315
-0.0689488
0.0185371
0.0160806
-0.015695
-0.00663174
-0.00244203
0.0247695
0.0336641
-0.0126592
0.00213455
0.0443323
-0.00897382
-0.0502371
0.0148499
-0.0101121
-0.000916921
0.0058703
0.00515992
0.0217948
-0.0166899
0.0724802
-0.0618769
0.0237294
-0.0209605
0.0479629
-0.095951
-0.059694
-0.0046765
-0.0141824
0.0373826
0.0189646
-0.0201289
0.21182
-0.1022
-0.0892619
0.082786
0.0202898
0.011838
0.217606
-0.191811
-0.0376907
0.000950116
0.128903
-0.0299911
-0.0998604
-0.00407672
0.0256783
-0.0189666
0.359912
-0.0236075
-0.292559
-0.0437051
0.0675596
-0.059284
-0.166569
-0.0505857
0.17694
-0.0526498
0.0202034
-0.0183813
-0.00365153
0.000134204
-0.00334663
0.00686473
0.0140068
-0.00090552
-0.00525139
-0.00784773
-0.00401725
0.00386359
-0.00673891
0.00689366
0.00032137
0.00152232
-0.00200665
0.000162777
-0.0101344
0.00393991
-0.0163128
0.0225071
-0.122035
-0.01089
0.085838
-0.0154703
-0.020805
0.0657036
-0.0294223
0.0807646
-0.117907
0.037994
-0.000911726
-0.00769589
0.00321238
-0.0117234
0.0162045
-0.000660746
-0.000138522
0.000788348
1.02535e-05
-0.0103699
-0.021477
0.0066567
0.0252416
-0.0198419
-0.0093379
0.0220628
0.00714593
-0.0649932
-0.0115623
0.0238904
0.0525869
-0.0412621
0.0128631
0.00536278
0.0230363
0.00177255
-0.00306495
-0.00555017
0.00684471
0.100314
-0.0641309
0.0017603
-0.0334236
-0.00805615
0.0366947
-0.00564944
-0.00176813
-0.000565856
0.00799836
-0.0109986
-0.0195324
0.0106473
0.0122795
-0.00787359
-0.0163328
0.0118961
0.00146728
0.00227162
0.000739798
0.000730345
-0.00540595
0.00388458
0.000791469
-0.0643387
0.046237
0.0467347
0.0265322
-0.00865632
-0.0268922
8.53722e-05
-0.00188174
-0.00100464
0.00281295
0.000998818
-0.00321948
0.00231725
0.00571675
0.00934725
-0.0241676
0.00910455
0.0948924
-0.0148621
0.111555
-0.19156
-0.0408843
-0.0451075
0.0251888
0.0608203
0.154923
-0.18508
0.102026
0.230737
0.146156
-0.147894
-0.228989
0.0786269
0.0804052
-0.028455
0.0831819
-0.010885
0.0063272
-0.0745983
0.0357245
0.119278
0.0479676
-0.0393852
0.0376868
0.00552938
-0.00749354
0.0718982
-0.00752757
0.0285843
0.0272172
0.0282459
-0.000875288
-0.00320762
-0.024168
-0.0558076
-0.0194464
0.122324
0.0838996
0.0241907
-0.0882957
-0.00976663
0.0157245
0.0198344
-0.010372
-0.0535137
0.05545
0.0102124
-0.00167501
-0.00615256
-0.00236586
0.4208
-0.210322
-0.0719472
-0.138458
-0.0207989
-0.00421762
0.0123278
-0.0606972
-0.171185
0.265395
-0.0335436
0.125477
-0.0680553
-0.106561
0.049147
-0.00126047
-0.00970646
-0.00192109
0.0128849
0.0268613
-0.0121457
-0.015975
-0.0517687
-0.00406847
0.0359316
0.0199051
0.0463173
0.221036
-0.271692
0.00435214
-0.0842102
-0.032241
0.414252
-0.315517
-0.0231835
-0.0754862
0.0922679
0.00289704
0.0154206
-0.012054
0.029931
0.00686557
-0.0247417
0.0194751
0.00437784
0.013697
-0.00512036
-0.010556
0.0585669
-0.0405919
-0.0370581
0.0190827
-0.0512775
0.0821558
0.0101697
-0.120931
0.070288
0.0404736
0.0286106
-0.265265
0.336462
-0.0995204
-0.0467003
0.0162774
-0.0158545
-0.0480019
-0.0202269
-0.0468558
0.0203822
-0.051945
-0.0620291
0.0267282
0.0872476
0.0818055
0.0125594
-0.0362607
-0.0581102
-0.138351
0.153163
-0.0667647
-0.0807363
-0.00944251
-0.0161682
-0.0686699
-0.0535238
0.0214767
-0.0016099
-0.0101131
0.0128151
0.0163348
-0.0184973
-0.0106578
0.02624
0.00722969
-0.00232167
-0.0311191
0.00242355
-0.00118012
-0.00189267
0.000649098
0.00842977
0.000600304
-0.00795841
-0.00107175
-0.0245041
0.0175008
0.0327533
0.0014529
0.00617445
0.000801935
0.0023198
0.0393088
-0.0273805
-0.0141964
0.0100475
-0.0868459
-0.12722
0.0256638
-0.119757
0.0372735
-0.050205
0.00380589
-0.132061
0.00849978
-0.0411111
0.0841704
-0.00578575
-0.0519863
0.0146818
-0.00642821
0.0271574
-0.0282173
0.00748909
0.0310052
-0.0894177
0.00558323
0.0083632
0.00254006
0.0859307
0.149312
-0.00817191
-0.22692
-0.0421091
0.173466
0.0210692
-0.0133143
0.00433285
0.0480013
-0.03903
-0.00549964
-0.0307016
0.0560903
-0.0198856
0.0258004
0.00298623
0.0780584
0.0214592
-0.0505618
0.0450343
0.00358917
0.10381
0.00600435
-0.113401
0.00317936
-0.00993844
0.0195746
-0.0693775
0.128885
-0.0339176
-0.0198486
0.0230671
-0.0850631
0.0123043
0.0606046
0.012156
8.03601e-05
0.0127902
-0.0114028
-0.00146667
0.000417899
0.0105876
-0.0109253
0.0206495
-0.00333412
0.00816221
0.000963512
-0.0313664
0.022177
-0.00753266
0.0190338
-0.0115067
0.0492299
-0.0301343
0.0339921
-0.169123
-0.0734895
-0.0190256
0.0133496
-0.0236151
0.0293835
-0.12954
-0.028509
0.113315
0.0447267
-0.0361992
0.0453314
-0.0083039
-0.0146942
0.00906066
0.0139363
0.0112017
-0.0303945
0.0108883
0.0366108
0.039662
-0.0326433
0.00418217
-0.0374211
0.00378275
0.0154088
0.0182103
-0.07446
0.12649
-0.00280136
-0.0404353
-0.0615487
0.0890081
0.0230974
0.000303666
-0.0381036
0.0146956
0.0501885
-0.0748379
-0.00548416
0.129006
-0.0325776
0.00150683
-0.09793
-0.00171911
0.0187123
0.00313409
-0.0201145
-0.00827531
-0.0152544
0.0542165
-0.0031102
0.000634041
-0.0517366
-0.0567949
0.0325234
0.0319501
-0.0519183
0.0494134
-0.0288407
0.050328
-0.0555765
-0.0460603
0.0448413
0.013169
-0.0135714
-0.00402481
0.00442706
-0.0117643
0.0112676
-0.00166997
0.00216698
-0.00164104
-0.00277869
0.0110701
0.00531301
-0.00321458
0.0250304
-0.0403516
-0.0380685
-0.0132163
0.0227899
0.0102278
0.00373368
0.00395666
0.0299501
-0.00558991
0.0257724
-0.0775909
0.000543754
-0.00392744
-0.00469656
0.00806956
0.00175749
0.00262211
-0.00997486
0.00562872
0.00524934
0.00360539
-0.0144972
0.0263274
-0.0561668
-0.0246395
0.0544787
-0.0115151
0.0125075
-0.00331453
-0.00515917
0.00836319
0.00167638
-0.00481854
-0.00370342
-0.000303788
0.00384754
0.000156949
0.0232961
-0.0223545
-0.0125129
-0.00322337
-0.0153266
-0.0299917
0.0485812
0.00574475
-0.0059417
-0.0628103
0.119525
0.425003
-0.130259
-0.029016
0.0703282
0.000246795
0.0327574
0.0287847
-0.0617865
0.0265879
0.0267626
-0.0466436
-0.00668871
0.0217172
-0.012739
-0.00230627
-0.0066754
0.017704
-0.00739124
0.0156218
-0.0662795
0.164852
0.130549
-0.049281
-0.009381
0.090524
-0.00870801
-0.00477832
-0.0385575
0.045221
-0.00188239
-0.0135064
0.00105433
0.00767956
0.00791105
-0.0249866
0.00238087
-0.00797795
0.0243894
-0.056998
-0.0361437
0.0687482
-0.00342177
-0.0405267
0.0340228
0.00992635
0.0175751
-0.0335061
0.0198998
-0.00396778
-0.00277505
0.0042338
0.00657039
-0.00802117
-0.0199317
0.0112586
0.0109858
-0.0322478
-0.000848779
-0.0382807
0.000519526
-0.0053523
0.0171289
0.0611665
-0.0770236
0.101841
-0.085928
-0.0660072
0.0737538
0.285759
-0.293502
-0.105659
-0.104405
0.085673
-0.0456043
0.0614405
0.0732735
-0.089112
-0.0583657
-0.040095
-0.00719791
-0.0274513
-0.0765193
0.0135844
0.00441859
-0.0181066
0.000102891
-0.000496143
-0.0260147
-0.162904
-0.0157454
0.0396888
0.138969
-0.00971522
0.0145272
0.0183726
-0.0232122
-0.00312955
0.00920014
-0.0158032
0.0123699
-0.00833469
-0.00853034
0.00449484
-0.0140567
-0.0183194
0.023913
0.00846806
-0.00214733
0.0197998
-0.00239922
0.0194656
-0.0547803
-0.029239
0.0645535
0.0119287
0.0010089
-0.0318603
0.247988
-0.214376
0.052548
-0.0390341
0.0198245
-0.0245053
-0.0243003
0.0602257
0.143097
-0.0419518
-0.0132149
-0.0307161
-2.70737e-05
-0.0112131
-0.00326189
-0.123347
0.12388
0.00266884
-0.0522318
0.000895187
0.00537924
-0.085992
0.0532214
0.0874584
-0.0546838
-0.0105077
0.0144454
0.0888546
0.00345255
-0.0289297
-0.00597815
-0.00146526
0.00049392
0.00505245
-0.00408131
-0.007096
0.0012131
0.00441715
-0.0181307
0.0210828
0.0185241
-0.0339145
0.0271059
0.00236579
-0.0025794
0.00200603
-0.00179221
-0.00185535
-0.00287478
-0.089155
0.0878868
0.0869315
-0.085662
0.00549051
0.0408204
-0.0403788
0.0453076
-0.0159805
-0.0270395
-0.00227693
-0.0635931
0.00538571
-0.00282641
0.061026
-0.033726
-0.0024032
0.016345
0.0197819
-0.0195523
0.0349522
-0.000216956
-0.015169
-0.0263465
-0.00386235
-0.0098139
0.0675992
-0.0482793
-0.0172852
0.0107983
0.0191651
0.0123521
-0.0423161
0.00214407
0.0051787
-0.00587678
-0.00127826
0.0530818
-0.0983616
-0.109512
0.154694
0.024456
-0.00774059
-0.022152
0.00543749
-0.0459026
0.0226986
0.0476599
0.0573136
-0.0524614
-0.0125928
-0.00556961
0.0169804
0.0218858
-0.00464183
-0.0247552
0.00751649
0.110192
-0.0227158
0.0604676
0.0441548
-0.0348742
0.0331086
0.0375447
-0.035815
0.0158349
-0.00202453
-0.0221799
0.00840682
0.00596259
-0.00337456
0.000383975
0.137944
-0.264634
0.245155
-0.118455
0.0160167
-0.102205
0.0202081
0.0659793
-0.12036
-0.0573597
0.195913
-0.0181918
0.0276062
-0.0478931
-0.0232156
0.0435074
-0.0220346
-0.0821299
0.139055
0.00457261
0.00942961
-0.00145489
0.00944645
0.0724752
0.0245721
-0.106491
-0.00902452
0.00141534
-0.00239202
-0.00862441
-0.00321201
0.0142309
-0.093227
0.0706681
0.0310524
-0.0377378
-0.005362
-0.0956091
-0.0316318
0.020783
-0.12168
0.0289101
0.00361815
-0.0754951
-0.0977828
-0.0480276
-0.0304943
-0.00114733
-0.00271944
0.00445018
-0.000587215
-0.0116919
0.00873478
0.00181134
0.0265518
0.00792183
0.0187712
0.00420509
-0.028365
0.0265181
0.120595
0.00251887
-0.0337201
-0.0893909
-0.0126679
0.0729235
-0.0425539
0.0482938
-0.0718398
-0.0173284
-0.00459796
-0.102815
0.0638893
0.0306744
-0.040968
0.0635604
-0.0470773
0.00538003
-0.0218461
-0.179675
0.177136
-0.0067655
0.00933366
-0.00549458
0.0133308
0.23461
-0.277831
-0.0643903
0.107667
-0.0614873
-0.151961
0.153301
0.0601278
-0.113213
0.155531
0.0097081
-0.0520293
-0.0167902
0.101182
0.00349761
-0.012539
0.0127185
0.0322455
0.0210946
-0.00255021
-0.0507978
0.0105373
-0.00607913
-0.0044658
4.76407e-06
0.00418527
-0.00686301
-0.00567496
0.00124675
-0.0262944
0.0128746
-0.0107943
-0.0117136
-0.0645758
0.157911
0.237057
0.0532754
-0.0348967
-0.117594
0.0992153
-0.0177935
0.00560141
-0.0218201
0.0340503
-0.160677
0.0189138
-0.0203891
-0.00132392
0.00551295
0.0214315
-0.031579
-0.0310552
-0.00360758
-0.00320642
0.0378674
0.0559598
0.0189513
-0.0115391
0.0401856
0.00265337
-0.0308097
-0.0120194
-0.271592
0.0974615
0.0215564
0.00529925
0.00669968
-0.0335578
0.00477238
-0.00852237
0.00557579
-0.00181828
0.0036529
-0.00361693
0.00172844
-0.00173195
0.0218437
-0.0134122
0.0382509
0.0126952
-0.0397106
-0.0112198
-0.000613179
0.00586674
0.00762406
-0.0129587
0.00516595
0.00607821
-0.011881
0.0140016
0.0224804
-0.0432848
0.0674587
-0.0162561
-0.0536898
-0.00372676
-0.00489337
-0.000562174
0.00918071
-0.000464114
-0.00346213
0.00019951
0.0381422
-0.0235942
0.00982059
0.00234919
-0.00648034
0.005099
-0.000961083
-0.000528015
-0.00200876
-0.00255145
3.76877e-05
0.00143561
0.00106987
-0.00705299
-0.00143639
0.00592416
0.0603406
-0.0437698
-0.0145111
-0.0500443
-0.00297522
-0.0076906
-0.0724802
0.03494
0.0723983
-0.0348642
0.0037235
0.00161494
0.000260144
-0.00559925
0.00657217
-0.00242926
-0.000417722
0.0112794
0.000352199
-0.0100184
0.00804872
-0.0169077
0.0154273
0.116084
-0.0267504
-0.12744
0.0461542
-0.099666
0.109932
-0.0862912
0.00961699
0.0687693
0.00790552
-0.103245
-0.00923563
-0.0374157
0.0436875
-0.00730412
0.00103795
0.126618
0.0143076
-0.0825545
0.0690315
-0.0280827
-0.0197716
-0.0207817
0.0722735
-0.102726
-0.00284129
-0.00632904
0.110696
0.0644292
-0.0426165
-0.0474127
0.121162
-0.0553521
-0.000420707
-0.0652301
0.0158267
0.000701523
0.0425766
-0.0498222
0.0222556
0.163524
-0.0240314
0.0370762
-0.176427
-0.0608697
0.0635535
0.00283176
-0.00750908
0.000287323
0.0174582
0.00384871
0.00948827
-0.0128874
-0.0677282
0.0532553
-0.031016
-0.111148
0.16761
-0.135171
-0.0332849
-0.0783687
0.0429855
-0.0901945
-0.172483
0.153659
0.108989
0.00340852
-0.0323374
0.0011784
0.00359761
0.0434738
-0.0560381
0.00897273
0.58236
1.04066
-1.57449
-0.0454469
0.229907
-0.164571
-0.011392
-0.00502674
0.00381559
0.0126276
1.24023
0.33332
-0.991178
-0.00209095
-0.00564008
-8.31147e-06
-0.223429
-0.00918555
0.34969
0.0115259
-0.010141
0.0379773
0.971443
-0.263194
0.332432
-0.352229
-0.431966
1.7557
0.0312111
-0.0663463
0.0459323
0.0431732
0.0122879
-0.0493808
-0.00606529
0.0299478
0.00891897
-0.0207688
-0.0272465
-0.0133139
0.0609929
-0.0283072
-0.00858854
0.0279448
-0.0174036
-0.0229109
-0.0170154
-0.194549
0.201975
-0.024438
-0.0193151
-0.0131187
-0.0107561
0.00209024
0.0217853
0.087157
0.0324941
-0.0171859
0.0254754
0.00669971
-0.0149751
-0.0295533
0.0398303
0.0219704
0.0495566
-0.0416052
-0.0363275
-0.0278136
0.0265558
0.0166469
-0.0153919
-0.114588
0.0858385
-0.0269751
0.110623
-0.0447687
-0.0389427
-0.143102
0.117297
0.103261
0.00190117
0.0928749
-0.0897269
-0.00505122
-0.261784
0.100136
0.09711
-0.00496764
0.0359244
-0.0105902
-0.0203568
-0.00769254
0.00423217
-0.011261
0.0147226
0.0303156
0.0297198
0.00591187
-0.0659726
0.0127167
0.0843262
-0.0266799
-0.0703565
0.0371331
0.0763946
0.00688736
-0.00520092
-0.0146615
0.0157828
-0.0010408
0.0235129
0.00904004
-0.0067542
-0.00530646
0.00302206
-0.00106843
-0.00414694
-0.00478603
0.0100095
-0.0417561
0.0152558
0.0359535
-0.0139062
0.0351487
-0.0208938
-0.0374208
0.11393
-0.0578398
-0.0186868
0.0694121
-0.0583228
-0.0288133
0.00242861
0.0019653
-0.00114622
-0.00324616
0.00529482
0.0109379
-0.0582684
0.111948
-0.0477812
0.0290249
-0.0306416
-0.0718757
-0.381289
0.0398255
-0.0104997
-0.0654111
-0.0450898
0.0546376
-0.0179685
0.00842377
0.0857796
-0.0194607
-0.0689862
0.00266774
-0.0729298
0.0546932
0.0135824
0.00465396
-0.00130149
-0.00559688
-0.00482832
0.0116844
-0.000359219
-0.0229264
0.00727075
0.0160443
-0.00425697
0.000498513
0.00548175
-0.00172821
0.00212925
-0.00877934
0.00430451
0.00996954
-0.0104373
0.00375734
0.00262327
0.00404961
0.00482255
-0.00199951
0.00125688
0.0101063
0.00661624
0.0145221
-0.00237587
0.000216821
0.00341095
-0.000880651
0.00511674
-0.0235362
-0.135733
0.220502
0.0158748
-0.034302
-0.045217
-0.0104624
0.0287353
-0.00239775
-0.0255992
-0.0190249
0.0113867
0.0332351
-0.0183379
0.0437007
-0.00280387
-0.0225827
0.00154586
0.000170458
-0.00440659
0.00269041
-0.0473089
0.0478519
0.0058278
-0.0506635
0.0040587
0.0244208
-0.0677788
-0.0991861
0.093669
-0.231227
0.11494
0.0814858
-0.190318
0.420132
-0.311185
0.0141598
0.0200418
-0.0378516
0.0317214
-0.0674729
-0.0228558
0.0586056
0.0308334
0.00513636
-0.110287
0.139092
0.160249
-0.189017
-0.0692895
-0.309701
0.156345
0.22263
0.0395131
-0.0254637
0.0445785
0.0355367
-0.699232
0.398477
0.265134
-0.0224845
0.0430185
-0.0105015
-0.010036
0.018664
0.00449637
0.0156528
-0.038802
0.00194446
0.310557
0.128143
0.114697
-0.219523
-0.0448286
0.150029
0.0551996
0.0935341
-0.0370154
-0.111736
0.0110468
-0.0767662
0.0974389
-0.0202672
-0.0950204
0.0746315
0.0405886
-0.0574031
0.06371
-0.0763466
-0.109086
-0.111586
0.0109418
0.008877
-0.0285363
0.0836737
-0.0181535
-0.0253305
0.0253528
-0.0311511
0.0184793
-0.0126847
0.0296764
-0.0212921
-0.00370195
-0.0046733
0.0117936
-0.0178222
0.0111144
-0.00507488
-0.130662
0.189802
-0.0108465
1.93008e-05
-0.00869792
0.0154064
-0.006724
0.00476212
-0.00759545
0.00285592
-0.00663833
0.00774985
0.00363398
-0.0099393
-0.000331345
-0.00399359
0.0107745
-0.0054844
-0.005155
0.00853338
0.0139784
-0.00710288
0.0918459
-0.0115646
-0.0229697
0.0105797
0.0290333
-0.0940366
0.0368361
-0.00366423
-0.0294728
0.0324608
-0.00844744
0.0113593
0.025902
-0.0290528
-0.00821778
-0.0646398
0.0562124
-0.0334025
-0.00379062
0.00571021
-0.00393199
-0.0734028
0.076807
-0.0331758
-0.0126847
0.00543737
0.0248252
0.0252742
-0.0931499
-0.0803063
-0.0141569
-0.0963376
-0.0125771
0.000841382
-0.0168762
0.0286491
-0.0095612
-0.00150978
0.035602
-0.0244689
-0.0132845
0.0498079
-0.0556636
0.0106982
-0.00176276
0.00813833
-0.0168529
-0.0240857
0.0813694
0.0472703
-0.104508
-0.0873128
0.00378669
0.0105962
0.0031028
-0.00506367
0.0160846
-0.0140828
0.0598758
0.354749
0.00364813
-0.418275
0.0150533