/*--------------------------------*- C++ -*----------------------------------*\
  =========                 |
  \\      /  F ield         | OpenFOAM: The Open Source CFD Toolbox
   \\    /   O peration     | Website:  https://openfoam.org
    \\  /    A nd           | Version:  11
     \\/     M anipulation  |
\*---------------------------------------------------------------------------*/
FoamFile
{
    format      ascii;
    class       volScalarField;
    location    "40";
    object      p;
}
// * * * * * * * * * * * * * * * * * * * * * * * * * * * * * * * * * * * * * //

dimensions      [0 2 -2 0 0 0 0];

internalField   nonuniform List<scalar> 
20983
(
0.000416573
-0.000387097
-0.000521686
-0.000976361
-0.00079423
-0.000860609
0.0030714
-0.00315495
0.000788151
-0.0137637
-0.00115543
-0.00338875
-0.000404949
0.00116322
0.0011187
-0.00263268
0.00154946
-0.00123257
-0.00238711
-0.000821251
0.000437881
0.000624669
0.00288333
-0.00144443
0.000776271
0.0011536
0.00296409
0.00233164
0.00276751
0.0032551
0.0303346
0.00328729
-0.0048245
0.00347616
-0.00419577
-0.00183504
0.000969407
0.000940938
-0.000744517
-0.00174097
-0.000848
-0.00914123
-7.31709e-05
0.00453129
2.16235e-06
-0.000155489
0.00131589
0.000836551
0.24376
0.242273
-0.00128389
0.0010822
0.000298006
0.00634212
0.00150701
-0.00683653
-0.00120902
-0.00153527
0.00101861
0.00141007
0.000303556
-0.000826853
-0.000752354
-0.000655501
-0.00476582
0.000177411
-0.000177139
-0.00217625
0.000145016
-0.000870768
0.000879133
0.000808363
0.00101303
0.00137473
-0.000497917
0.0201426
0.0201161
0.00128777
0.0123313
0.00217001
0.0016894
-0.00561348
4.14057e-05
-0.135223
-0.00119506
0.000698041
-0.00222082
-0.0108854
-0.0176743
-0.00104083
0.000886227
-0.15908
-0.00837062
0.000345807
-0.00605052
0.00311137
0.00344087
0.000302941
0.00130133
0.00105275
0.00171744
-0.000683721
-0.00160399
0.000708932
-0.000429513
0.000169891
-0.00270353
0.000968297
-0.0498769
0.00164748
0.000766111
-0.00215416
0.000958199
-0.0242879
-0.0242534
0.00153447
-0.146739
-0.0328932
-0.202784
0.0112031
0.00201483
-0.00255665
-0.00811187
-0.000164911
5.8245e-05
-0.000910967
-0.00096217
0.000791191
0.00320088
0.00339566
5.42316e-05
0.000244001
0.00203028
-0.000829989
-0.000296934
0.00337598
0.00120104
-0.00202696
0.00228442
0.00515357
0.00688486
-0.00439975
0.000716825
-0.00163557
0.00134548
0.000783091
-0.000208411
0.00761432
-0.0206025
-0.0214974
0.00819391
-0.00099201
0.000655599
0.000895289
0.0234769
0.0387152
0.000391971
0.00173375
0.000937318
-0.000248464
-0.00149374
-0.000913129
2.14696e-05
-0.000217372
-0.013584
0.000318907
1.29846e-06
0.000434261
1.39413e-05
0.00018495
0.000894662
-0.122148
0.036831
0.000407747
-0.000626602
-0.00145466
-0.0669702
-0.000909399
-0.536749
-0.00192302
-0.001625
-0.00209788
-0.000591517
0.00336445
-0.000659896
-0.0137387
0.000923839
-0.000574529
-0.00302905
-0.000318854
0.0020137
0.000394962
0.00144292
0.00117681
-0.000932686
0.000836504
-0.00688386
0.00210138
0.00258048
-0.00725564
0.000918887
-0.00969079
-0.00150124
-0.00333591
0.000412488
-0.00398615
0.000148508
0.000896002
-0.0963951
-0.000406581
0.000735543
0.0129452
0.0186556
0.000982974
-8.62514e-05
-0.000399972
-0.000675986
0.00162346
0.00311683
0.00177533
-0.00196446
0.000685671
0.000935316
-0.000824908
0.000724683
0.00018506
2.81144e-05
0.00390225
-0.00262595
0.000353145
-0.000864102
0.00135142
0.000315991
-0.0216789
-0.17545
-0.00167529
0.011134
-0.00585653
-0.00796523
0.00137597
0.00136237
0.00233334
0.00120951
0.00161725
0.00133253
0.00147106
0.00111394
0.00135023
0.128202
0.0565499
0.226611
0.0319334
0.0401873
-0.00115832
-0.00485693
0.00352631
-0.00748989
0.00147665
-0.00030382
0.00056536
-0.00226979
-0.00225517
-5.38241e-05
0.000795245
-0.000222171
-0.00334456
0.000294256
0.00031127
0.000656653
0.00262452
0.0016405
0.0101793
0.00346245
-0.00130557
0.00295027
0.00186077
0.00149601
-0.000567719
0.000956166
-0.000578755
-0.00247505
-0.00435934
4.05874e-05
-0.0853692
-0.00165067
0.00125944
0.00335381
0.000972584
0.00292999
0.00159978
-0.00311179
-0.00139238
-5.75293e-05
0.00324285
0.000554225
-0.00127367
-0.00142591
-0.000140972
0.00187754
-0.00470658
0.00431522
0.00275301
8.97883e-05
0.000795318
0.00107182
-0.00938765
0.00174868
0.00191949
-0.00169706
-0.0103599
-0.00313275
0.0123437
0.0211413
0.011483
-0.000519038
-8.009e-05
0.00943534
0.000457843
0.000297334
0.00167801
-0.000243345
-0.0290824
-0.0165261
-0.00204924
0.00120933
0.000865667
0.00160438
0.00115604
-0.00177325
0.0100591
0.00356003
-0.00010188
0.000895419
-0.00131259
-0.00276016
0.000140776
0.000241322
-0.000520109
-0.00108623
0.000498569
-0.00637122
-0.00210313
3.20864e-05
-0.01359
0.0901634
0.0239501
-0.00939402
0.00123072
-0.000640879
-0.000166777
-0.000211696
-0.000816246
0.00113322
-0.00103114
-0.00493368
-0.0012073
-0.00176448
0.00122421
-0.000508829
0.00274775
0.000253704
-0.0518488
0.000212185
0.00029477
-0.000631762
-0.000101772
-0.00182941
0.000743571
0.000228119
0.00166718
0.00229831
-0.000100747
-0.00209667
0.00140401
-0.00149349
0.0014428
0.001569
-0.00230227
-0.0215559
-0.273335
-0.00230406
0.00106691
-0.017182
0.0528903
-0.0332449
3.62516e-05
-0.000240527
0.00485635
-0.0084105
0.0842331
0.0167266
-0.0121766
-0.00169093
-0.000170618
-0.00480151
0.00156561
-0.000834266
0.00333562
0.00072137
0.00110999
0.000530625
0.000525814
0.0302437
0.00105947
0.0123188
0.00175727
-0.000704027
-0.03898
-0.00189942
0.000613163
-0.000598487
0.000188483
0.00384521
0.013143
-0.00273035
0.000149996
0.0109648
-0.000599878
0.000510783
-0.000724999
0.0149012
0.0111899
0.000498891
0.002833
0.00081128
0.000808565
0.00128049
0.00311248
0.00253148
0.000589445
-0.000329858
-0.00118829
0.000907696
-0.000872779
0.004604
0.000919149
-0.00799296
-0.011563
-0.00270597
-0.0382895
0.00229686
-5.85504e-05
-0.000497626
0.00130057
-0.000257879
-0.00106494
0.00127396
-0.000869313
0.00986731
0.000794041
0.019297
0.0122479
0.00183416
-0.000776764
-0.00117423
0.00129118
-0.00143169
-0.00159752
-0.00084303
-0.000219086
-0.00140519
-0.043699
-9.92466e-05
0.000360941
0.00241944
-0.0212274
-0.00413729
-0.0152703
-0.00209184
-0.00713407
-0.063547
-0.00513746
0.00115378
-0.00132788
0.00243053
-0.0025423
-0.004431
0.00184915
-0.00496826
0.000237546
-0.00149606
-0.000428547
0.025698
-0.0776951
0.0460314
-0.029844
-0.000148047
-0.00137626
0.00123998
-0.000166058
5.70512e-06
-0.00243245
-0.00753689
0.000391207
4.62435e-05
-0.000304663
-0.000471603
0.00362129
-0.00822924
-0.000312594
-0.000601748
-3.07668e-05
0.000447659
-0.000581315
-0.000600054
0.00935471
-0.401226
0.000574925
0.000639238
8.15334e-05
0.00189816
0.000951417
9.41554e-05
0.000392705
0.00025313
-0.000751756
0.0010203
-0.000122567
0.000436807
0.0010322
-0.00114312
-0.000587416
-0.000811865
-0.00221797
0.0107488
-0.000462845
-0.00345009
0.000760974
0.000737177
-0.0100155
0.00777283
-0.032902
0.00490931
0.000850517
0.00845255
-0.000500046
0.00627638
0.00125479
6.20318e-05
0.00050476
0.00072937
0.00503069
-0.00638
-0.000261303
0.000291769
-0.000410322
0.00119252
0.00263695
0.000799471
-0.00119368
0.00279398
-0.00160666
0.000639607
-0.00406177
-0.0152991
0.00243291
0.00655621
0.0103848
0.00554736
-0.000409594
0.00238836
0.000102968
0.00261682
-0.00119534
-0.000963311
-0.0024238
-0.000233925
0.00154304
-0.141483
-0.00311233
-0.0783099
-0.0175546
0.00990024
-0.0159361
-0.00129786
0.0101344
0.0127201
0.318163
-0.00127127
0.00144353
-0.00199058
0.000228427
-0.000411277
-0.295429
0.000902772
-0.304612
-0.188421
-0.000958659
-0.000853614
-0.00121767
-0.00178914
-0.00127047
0.001221
0.000170651
0.00101938
-0.00134345
0.00168181
0.000650169
0.0027503
0.000704677
0.00232677
0.0014257
0.00234654
0.000220339
0.00262627
-0.00202283
0.00158742
0.000680434
0.000367195
-0.012264
-0.00520352
-0.00605401
-0.00418803
-0.00182174
0.00161761
-0.0192536
-0.000993509
0.000796084
-0.00222038
-0.000129987
0.000780281
0.00154727
-0.00793462
-0.0163662
-0.000302254
0.00566721
-0.000730351
0.0143685
0.0209198
0.000450344
-0.00213449
0.00187545
0.00298375
-0.033915
0.000703487
0.00095808
0.000792697
-0.00296804
-8.45134e-05
-0.0012527
-0.000665178
0.000441316
-0.0174242
-0.00725399
0.00044233
-0.00084195
-0.00155165
0.000417108
4.12482e-05
-0.000525932
0.00265312
0.000823207
0.000520942
-0.252894
-0.292165
-0.09214
0.00104921
-0.000705823
-0.00068182
0.0012613
0.000322481
0.00303184
-0.00172618
-0.00044024
-0.00114497
0.00240565
-0.0625228
-0.00132165
0.00171349
0.00190581
0.00159146
0.00162231
0.00444681
0.00519942
-0.0012021
-0.00615563
0.00174415
0.00193909
-0.000202531
0.0019006
0.0019279
0.00203938
0.0018112
0.000847935
-0.00176514
0.000507509
0.00160327
0.00209574
0.00128123
0.00143239
0.000503207
8.34856e-05
0.00119794
0.00152025
-0.00256285
0.0017112
0.00054384
-0.0168122
-0.000164022
-0.000877557
0.00026337
0.00120355
-0.00562783
0.00494637
-0.00145061
-0.00112118
-0.088753
-0.00127092
-0.118548
-0.00036769
-0.000562027
-0.00225233
-0.00096348
-0.00190291
-0.000449647
-0.000140804
0.0170993
0.00146739
-0.000420253
0.000264898
0.000239069
-0.000531512
0.00114076
-0.00018303
0.00380197
-0.00089647
0.00213317
0.00296984
0.000751267
0.00275327
0.00244614
-0.000732426
-0.00065748
0.000798242
-0.000592108
0.00119707
-0.0380214
-0.000994018
-0.00766288
0.00186135
-0.000889879
0.00163295
0.0025686
0.000270629
-0.000143513
0.0196367
0.00750582
0.0102663
0.00754171
-0.0167189
-0.00237443
-0.0011821
-0.0019218
0.000335958
-0.00264615
-0.000974778
0.00550317
-0.0014075
-0.00181024
-0.00047998
0.00434358
-0.00101554
0.000398814
-0.000286435
0.000346335
-0.00112781
0.0156322
0.0614552
0.0419071
0.021324
0.0103633
-0.00940037
-0.00922403
-0.0357541
-0.035465
-0.000208605
-0.182929
-0.00475366
0.00171544
0.000671045
0.223741
0.000969037
0.00123012
-0.0563554
-0.000144815
0.000537182
0.00121516
0.00171931
0.000912649
-0.000753704
1.4094e-05
-0.000526186
0.00042082
-3.79969e-05
0.0015028
-0.00128745
0.000301182
0.000983789
0.00161375
-0.000333883
0.000568844
-0.0692822
0.00182137
0.00258482
0.0029967
-0.0012732
0.00190955
-0.000172031
0.0408951
0.00226214
0.00960841
0.00254898
0.0406852
0.0200503
0.0422626
-9.56217e-05
0.00132071
-0.00155037
-0.00265371
0.0028642
-0.0147361
-0.00311654
-0.0196058
-0.000856125
-0.000444887
-0.0360669
0.0602462
0.0281444
-0.0170991
0.00813364
0.0180512
0.000127108
-0.000277606
0.00212581
0.0010903
-6.77003e-05
-0.000210241
-0.00150736
1.39379e-06
-0.00144674
-0.00217651
-0.00104447
-0.000288859
0.00681427
0.0288651
-0.00160531
-0.0133081
-0.00264242
-0.00130996
0.000462158
0.0012193
0.00037898
0.00162631
0.00112382
0.000360519
-0.000900064
0.00403924
-0.000255276
0.00199246
-0.000190314
-0.000244704
0.000942501
0.000983309
0.00315813
-0.000867769
-0.000660563
0.00418943
0.000213889
0.00227869
0.00982811
0.00442383
0.0120762
0.0139915
0.00161383
0.00018996
-0.00141944
0.000643709
0.00082517
-0.0015406
-0.0192799
0.00219212
0.00221384
-0.000884036
0.000827071
-0.00118782
-3.46748e-05
-0.000793503
-0.000817707
0.00051872
-0.00135976
-0.00136229
0.000525947
0.000575745
-0.000771084
-0.000274437
-0.00102057
0.000450841
-0.00110809
0.00104279
-0.00104581
0.00171916
-0.00152561
-0.000919671
0.00109501
-0.00256744
0.000764851
0.000316554
-0.00239877
-0.000217186
0.00126285
-0.000512994
-0.00587722
-0.0006974
0.0147941
-0.000737768
0.0211495
0.000340692
-0.000152139
-0.000343111
-0.000415104
0.000667615
-0.000232176
0.00480448
0.000447225
0.00159668
0.00288637
-0.00117735
0.0109455
-0.000599281
0.0112524
0.0162163
0.00142369
0.0321024
0.00253549
0.00250363
-0.00109484
0.000657448
-0.000410719
-0.00142103
0.000525036
0.00134462
0.000363684
-0.000931696
0.000629621
0.000917936
0.00125422
-0.000346849
-0.000414329
-0.013494
0.000286679
0.000273956
-0.000276057
0.00145512
0.000854342
0.000997846
0.000177909
-4.42598e-05
0.00127071
-0.000458709
0.000725983
-0.000198487
0.000635247
-0.000140113
-0.0001974
-0.000895443
-0.001482
0.000195843
-0.00299617
0.00299417
-0.000854089
-0.00241411
0.00177919
0.0003225
-0.000268798
4.03481e-05
0.000526784
0.00141167
-0.000893112
0.000597656
-0.00355258
0.000250511
-0.00226755
-0.000712095
-0.000793047
-0.00249036
0.00125814
-0.00108133
0.000795867
-0.000940872
-0.000359214
-0.000594927
0.00298665
-0.000324474
-0.000893117
-0.00117057
0.00254388
0.000586779
0.000265676
7.82247e-05
0.000112197
0.00271995
0.000744014
0.00146979
0.000811466
-0.00152828
-0.000178607
-0.00247912
0.00280226
-0.00236157
-0.0099581
-0.000716327
0.000642673
-0.000124105
-0.000281685
0.0031617
0.000500362
0.000243413
-0.00295232
-4.4802e-05
-0.00255353
0.000944378
-0.000187496
0.000281823
-0.000297822
-0.00209318
-0.00039594
0.000227782
0.000228279
-0.00138909
-0.00039027
-0.00217402
0.00588917
0.0058951
0.00579453
3.48623e-05
-0.000924971
0.00106906
0.000263963
0.00207096
0.00116646
-0.000898926
0.00433089
-0.00420923
0.000217901
0.000247757
-0.000512944
0.00386804
-0.0200116
-0.000595143
0.00023595
0.000685686
0.0024244
0.00178915
0.00195911
0.000935826
0.000450276
0.000696905
0.000625818
0.00300487
0.00027216
0.000508955
0.00145193
0.00135036
0.00123534
0.000844431
0.00111176
0.00036225
-0.00697131
0.00083795
0.000881063
0.00162051
-0.000850797
0.00128768
0.000683418
0.000516168
0.000486786
0.00160165
-0.00272215
5.66799e-05
0.00232501
0.000958956
-0.000434705
0.000119793
0.00156444
0.000312577
-0.00210568
-0.000986955
-0.000887809
-0.00136347
-0.000569416
0.000332053
-0.00624535
0.000978573
-0.000208586
0.00463575
-0.000914383
0.0013126
-0.000488295
4.00279e-05
0.000112363
0.000181069
-0.00131953
0.000147246
-0.000392023
0.000526677
0.00179844
0.00488963
0.00095998
0.00586046
0.000700028
-0.00155963
0.00219873
0.00109351
0.00149578
0.00101657
0.00296302
-0.000813404
-0.00181565
7.98405e-05
0.000409423
0.00157429
0.00188413
-0.0017717
0.000738668
0.00112465
0.00127653
0.000125706
-0.00131072
0.00154707
6.96147e-05
0.00105951
-0.00460939
0.000159057
0.00329385
0.00291837
-0.00135627
-0.00329123
-0.00659772
0.00261989
-0.00121424
-0.0136845
-0.000251683
-0.00118094
0.00312438
6.23797e-05
0.000384943
0.000150711
0.000254972
-0.000408251
0.00038041
-0.000517369
-0.000288147
-0.00202103
-0.00162389
0.000453547
-0.00142245
-0.000782188
0.000748227
8.58473e-05
-0.000522113
-0.00165852
0.000746829
0.00267662
-0.00153512
0.000444214
0.000444688
0.00111994
-0.000307114
0.000468338
-0.00180761
-0.00115868
0.00012214
0.000562611
0.00291916
-0.000248149
0.000163697
-0.00160782
-0.00193976
-0.00127916
0.00161762
-0.000933189
0.000432619
0.0010711
0.0111154
0.00572317
0.00360975
0.000679814
0.0137143
0.00345758
-0.0141577
-0.0187753
-0.00624005
-0.00344472
-0.00270552
0.00123644
0.000163753
-0.000990211
-0.000627099
0.000336605
0.000783909
0.000738048
-0.000135479
-0.000629064
-0.00156827
0.000192855
0.00039801
0.000588581
-9.3096e-06
-0.00157852
-0.00467526
0.000378735
0.00187565
0.000496423
0.00113336
0.00316999
9.53474e-05
0.000840224
0.000486293
-0.00065179
0.00157793
0.000311945
-5.71832e-05
0.00103942
0.000810205
-0.000359237
-0.000120357
-0.00127698
-0.00160021
-0.000479196
5.99947e-05
-0.000493292
0.000688484
0.00268604
1.19036e-05
0.0137592
0.00562398
0.00226909
0.00185132
0.000570398
0.000826494
0.000497139
0.00137146
-0.00140683
-0.00163543
-0.000618257
-0.0029557
-0.000138059
0.000246865
-0.000820726
-0.000932602
0.000605049
-0.00280159
0.000546529
0.00103065
-0.000714009
0.000730022
0.00233392
-0.00950118
-0.00674846
-0.00306283
0.00456818
-0.0252163
-0.00821109
0.00249641
0.00229327
0.003263
0.000308523
0.00510312
-0.00154096
-2.10537e-05
-0.00222634
0.00487845
0.00582842
-0.000797345
-0.000145082
0.00167987
-0.00260646
-0.00396289
-0.00136927
-0.00209836
-0.00199705
-8.36301e-05
0.00017649
-0.00187245
0.000661467
0.000524992
3.48887e-05
0.000805088
-0.000141298
0.00220106
-0.0251523
-0.00124205
0.00103768
-0.000509948
0.00409908
0.000964457
-0.00129116
0.000643087
0.00793482
0.0503307
0.0207201
0.00349464
-0.000354533
0.000568488
0.000519816
0.00040798
0.00152209
-0.000389666
0.000138144
0.000934607
0.000299402
-0.000421086
0.000264483
0.00267939
0.00121384
-0.000949004
-0.00319843
0.00140344
0.000701699
0.000313159
0.000816367
0.00796792
-0.00314128
0.00109708
0.00171983
-0.00261245
0.00183866
0.000494857
0.00220728
0.00147545
0.00125544
0.000526049
0.00188538
0.00147185
0.000202639
0.00242112
-0.00262117
-0.00150385
-0.00133513
-2.49585e-05
9.76049e-05
0.000576161
0.000889355
-0.000788488
-0.00135882
-0.0022972
0.000591573
-0.000393153
-0.00116832
-0.0014642
6.04138e-05
0.00066111
-0.000376572
0.000160236
-0.000262033
-0.00140774
0.000536995
0.00119729
-0.000202706
0.000275321
-0.00131387
-0.00472783
0.000456976
0.000295103
0.000251343
0.000908074
-0.000540318
0.000574165
0.000364202
-0.000582174
0.0299366
0.00493597
0.000619558
0.000294806
0.00488467
0.000167498
0.000184299
0.00952785
-0.000962387
-0.00056265
0.00062941
-0.00136255
-9.1109e-05
0.000553562
0.00175566
-0.00410902
0.00227573
0.00165399
-0.000767238
0.00440239
0.00124178
0.00240745
0.00196649
-0.000227971
0.00045443
0.00110909
0.000448833
-0.000862361
0.0019722
0.00180492
0.00126531
0.00144218
0.00411148
0.00182665
0.00150837
0.002009
-0.00143604
0.000322378
-0.00149626
0.00066652
0.00132952
-0.00179696
0.0024014
-0.000152593
-0.000117919
0.000528049
-0.000896203
-0.00183791
0.0015934
-0.000993554
-0.00106911
0.000923176
-0.00159962
-0.00528457
0.00852247
-0.0010933
0.000718859
0.00104034
0.00256739
-0.000538497
-7.99519e-05
0.00129839
0.00111418
-0.00245406
0.000571332
0.000614462
0.0017615
-0.000641873
-0.00116641
-0.00020553
0.000306696
0.000287714
0.000187999
0.00156558
-0.000575556
0.000177951
0.00054547
-0.00171011
0.00113035
0.000620877
-0.000598714
-0.00377675
0.00172408
0.00117265
0.00152198
0.00184617
-0.00110646
0.000346985
0.00139115
-0.0265874
-0.0236589
0.00301903
0.0221316
-0.0467105
-0.0157315
-0.00142513
-0.00206756
-0.000401306
-0.000109254
0.0016973
-0.0117121
0.000927324
-0.000148951
-0.000624357
0.000261706
8.6655e-05
0.00134815
0.00142391
0.00123479
0.00151021
0.000748953
0.0156498
0.00146441
-0.0109681
0.00121048
0.000708935
-0.000408815
0.00131511
-0.000446137
-2.73892e-06
0.00281055
-0.00151215
0.00028032
0.00100399
-0.0119386
0.0027275
0.00209145
0.0136685
8.74498e-05
0.000698771
0.00217875
-0.00180752
-0.00904771
-0.00233279
-0.000573926
-0.000904435
0.000420098
0.0010305
-0.0100408
0.00127174
-0.00273341
-0.000873011
0.0012679
1.02785e-05
0.000395104
0.000483331
0.00252712
0.000117419
0.000655645
0.00194363
-0.00109341
0.000297385
0.00103444
-0.000442952
-0.0039296
0.000507394
6.84766e-05
-0.000583075
-0.0011323
-0.0116877
0.00120895
-6.03785e-06
0.00109576
0.0010456
0.00155481
-5.01795e-05
-0.00071988
0.00115194
0.000431672
0.00119233
0.000961703
-0.000489588
-0.000585443
0.00320455
0.000516928
0.00170089
-0.000904873
0.000146958
-0.00159603
-0.000866129
0.000614261
0.00172585
4.71405e-06
-1.92821e-05
0.000298876
-0.000972442
0.00952028
-0.00104492
0.00445352
0.00162856
-0.000706806
-0.00077897
0.00634702
0.00109541
-0.0058312
0.00145333
0.000773599
0.000336398
0.00212116
0.000559475
0.00227899
0.00225457
0.00419292
0.00246732
0.00467844
-0.000624028
-0.000580578
-0.000637693
-0.000662913
0.000624655
-0.000546039
-0.0009839
0.000870881
-0.000166361
0.00159426
0.00179806
0.000884115
0.00120079
0.00164324
-0.000106363
0.000686224
-0.00675622
0.000656522
-0.00107916
0.00157542
0.00154065
0.000916676
-0.00102498
0.00122393
-0.00499159
-0.000116568
-0.00105291
0.00179296
0.000702645
0.000501808
0.00284536
0.00140704
0.000115264
-0.000880998
-0.000445858
9.89994e-05
-0.0016096
-0.0013118
-0.000122433
0.000820545
0.000477432
-0.00124962
-0.000584974
-0.000705614
-0.00118508
0.000755567
6.35434e-05
-0.000308611
0.000358959
0.000126011
0.00107872
0.00130141
0.00111319
0.00171574
0.000854696
-0.00722277
0.000608294
-0.00927539
-0.0089004
0.00231933
0.000138731
0.00105971
-0.00101066
-0.00184571
0.00324315
-0.000981438
0.00155562
0.0012375
0.000152555
0.000932104
-0.00752782
0.000266429
-0.0014935
-0.00190208
-0.00303403
0.000122133
0.00221147
-0.000945144
-0.00315662
-0.000564862
-0.00233454
0.00258661
0.000142095
-0.0025002
-0.00208648
-0.000305614
-0.00155083
0.000321999
0.000378739
0.000297277
0.000132543
0.000716997
5.0662e-05
-0.000291183
9.16124e-05
0.000297683
-5.0528e-05
0.000556086
0.000366556
-0.00188761
0.0010485
0.00316317
0.00479961
0.0204627
0.0144153
0.00893314
0.0121962
-0.000174719
0.0078633
0.006116
0.00612916
0.00190098
-0.00146298
-0.00104868
-2.61306e-05
0.000906811
-0.00038298
0.00941972
0.0108627
0.00566099
0.00169312
-0.00162329
-0.00141206
0.00374273
0.0012005
0.0015403
-0.000542857
0.000871575
-0.000580505
-0.000240321
-0.000397732
-0.000360829
-7.82389e-05
0.0328305
-0.00132314
0.000194435
-0.00152619
-0.00669812
-0.00149416
-0.00290297
-0.0168568
-0.000814075
-0.000636539
0.000459375
0.000808162
-0.000166057
2.34003e-07
0.00743686
0.00690413
0.00504677
-0.00112097
0.000348631
0.000982954
0.000121504
0.00102457
0.00540221
0.00172984
0.00113289
0.0012281
0.000335105
0.000715312
-0.00109049
0.000528812
-0.00160868
0.00112329
-0.00445714
0.000231921
0.00973428
0.0155312
0.0124584
-0.000319547
-0.00537168
-0.0027592
-0.000771282
-0.00246713
0.000653787
0.000375649
-0.00106042
0.00195921
0.00164605
0.00160379
0.00311891
-0.000759373
0.000418159
0.000817663
0.00182153
-0.000158106
-9.40514e-05
0.000825009
0.000917071
0.00490434
0.00872475
0.00163997
0.000232991
-0.00159312
-7.89384e-05
0.000943713
0.0010081
-0.0454951
0.00349614
0.000826265
-0.288201
-0.518041
0.000292874
-0.000801402
0.00124535
-0.000165501
0.0017634
-0.000510064
-0.00166451
0.00228653
-0.000965317
0.00164854
0.000459674
-0.000682542
0.00060079
0.0001478
0.0154935
0.00407389
-0.0213994
0.00114168
0.000774314
0.00017334
0.000609509
-0.000109847
0.000281644
0.000654
0.00066611
-0.00212819
-0.000208831
-5.32575e-05
-0.00065088
0.000943502
0.00147982
0.00119775
0.00569494
0.0125602
0.00347697
-0.000158925
0.00443104
-0.00157096
0.000975937
-0.00194747
-0.000607003
-0.0007162
0.00132398
0.000536775
0.000849193
0.000518622
-0.00101342
-0.00100686
-0.00114518
0.00127412
-0.00141722
-0.000575597
0.00397821
0.000782497
-0.00160052
0.000454183
-4.0523e-05
0.00176684
-0.000415877
0.0027558
0.00593779
0.00166271
2.68379e-06
5.60451e-05
0.00492157
0.00180822
0.00138073
0.000357257
0.000727272
-0.00313035
-0.00132866
-0.000254201
0.00237652
0.000705769
0.00316983
0.00021838
0.00178867
0.00126952
-0.000422368
0.00161027
-0.000671357
-0.00154405
-0.00153065
-0.0147254
-0.00823764
0.00458743
0.000714302
-0.00441982
-0.000328561
-0.000214611
-0.000203422
-0.00055535
-0.0002984
-0.000734509
0.00196583
0.00124776
0.00655331
-0.000913302
0.00540238
0.000429126
0.00601084
0.00343231
0.00339709
0.00202734
-4.47415e-05
6.25218e-05
-0.000330384
-0.000827317
-0.000333076
0.00168243
-0.000214256
0.00128769
-0.000485824
0.00203016
0.00183748
0.00246757
0.00101307
0.000465907
-0.000365389
-0.000665085
0.00341579
0.00499411
-0.00103343
0.0029404
0.000590857
0.00159286
-0.000371335
-0.00247958
0.00183174
-0.000516821
0.000334594
0.000243421
0.000108745
8.2107e-05
0.00147295
0.0014898
0.000657014
0.00081983
0.000351856
0.00196326
0.000638244
0.000726823
0.001806
0.00146899
0.00147907
-0.000253129
-0.000282749
0.00151267
0.000781435
-0.000471713
-0.00349638
-0.000321959
-0.000743952
0.00153968
0.00179345
0.000502155
0.00120057
0.000405491
0.00166871
0.00386555
0.00209853
0.000953267
0.000733725
0.000734935
0.000710878
0.00118252
0.000444767
-0.000565759
0.00114218
0.00169001
-0.00254545
-0.000991918
0.00077509
0.000552322
0.00056654
-0.0019793
0.00198192
-8.01805e-05
0.00207166
0.000965521
0.000760906
0.00151329
-0.000630698
-0.00101318
0.00285959
0.00135068
0.00216319
0.00123327
0.00143955
-0.000262075
-0.00109319
0.000461687
-0.000394836
-0.000435649
-0.00262856
0.000515384
-0.00203113
-0.00117297
0.00245109
8.28589e-05
-0.00466076
0.00179426
0.0001579
0.000340553
-0.000717102
-0.00110137
0.00110652
-0.000220277
0.00264601
-0.000634116
0.00147704
-0.000862711
-0.00126212
0.00409543
0.00603058
0.00628687
0.000528925
0.000774741
0.00650267
-0.00074132
-0.00151284
0.000473364
-0.000183255
0.00139953
0.00137742
-0.00247345
0.00103635
-6.50319e-05
0.00203681
-0.00036288
-0.000739451
-0.000213046
-0.000123626
0.00571593
0.00441407
0.000336547
-0.00102071
-0.00661171
0.00278025
0.00116687
-0.00430102
-3.92514e-05
-0.00562228
0.00045597
-0.000603503
0.000516159
0.0015153
0.000821572
0.000247832
0.00081602
-0.00175953
0.00136704
0.00204237
0.00115631
0.00129254
0.000874527
0.00106292
0.00103452
0.00121954
-0.00168562
0.00100778
0.00111766
0.000199425
-0.00164465
-0.0021377
-5.13935e-05
-0.00157455
-0.00194118
-0.000292298
0.00172692
0.00566215
0.00168677
-0.000117323
-0.000131641
0.00170892
-0.00015056
0.000224767
-0.00134295
0.000907383
4.58644e-05
0.000228667
0.000620927
0.00509213
-0.00515191
-0.00174456
0.0010647
-0.000402794
0.00257253
-0.00126709
0.00203829
0.00371098
0.000363812
0.00292911
-0.00486803
-0.00184576
0.00176932
-0.00147043
0.00029239
-0.000950185
-0.00021211
0.00179924
0.00010161
-0.000972395
0.00358189
0.00388521
-0.00154284
-0.00118222
0.00108356
0.00255449
-0.00117846
0.00422589
0.00340761
0.00254856
0.000816082
0.00292592
-0.00103136
0.0197853
0.0359698
0.0278856
0.0393443
0.00876069
0.0361582
6.84151e-05
-0.000255434
0.000856027
-0.00132931
-0.000721687
-0.00144901
0.00158246
0.00165519
-0.00205
0.00270687
-0.00195381
0.00104849
-0.0212454
-0.000829813
-0.00134722
-0.000184766
0.00107012
-0.000275549
-0.00033903
-0.0018454
0.00248898
0.000475079
-3.67428e-05
0.0448185
0.0390217
-0.000415629
0.0668482
-0.002409
0.00285106
0.000798228
0.00440103
-0.00768198
0.000493064
-0.00400148
-0.000688602
0.000586548
0.0016147
-0.000157443
0.00301913
-0.000726993
-0.0391127
-0.0458985
0.00276873
-0.00294848
-0.0604488
-0.00930091
0.000464147
0.00251221
0.00233857
-0.000947344
4.68618e-05
0.000882238
0.00566471
0.000462955
-0.000870635
5.16492e-05
-0.00175578
0.000107923
-0.00159563
-0.00286142
-0.00178671
-0.00162255
-0.00352324
-0.000163168
0.000385586
0.000311459
0.000196703
0.0010459
-0.00139513
-0.000826131
0.00131291
-0.000592609
9.29663e-05
0.000947517
-0.000813905
2.87098e-05
0.00146155
-0.00271142
0.000870942
0.000385549
0.00031541
-9.32369e-05
0.0014533
-1.47501e-05
0.000625198
-0.000656905
0.000705613
-0.00184065
-0.00130815
0.00158522
0.00358177
0.00192043
0.00351361
-0.0471724
-0.0169234
0.00142099
-0.000652489
0.00049012
0.00160481
0.000831569
0.000556559
0.000304067
0.0014185
-0.00681888
0.00359561
0.000389046
-0.000905
-0.000100977
-0.000289358
0.00146414
-0.000688301
-0.000836984
0.000191789
0.00258709
-0.000174248
-9.93898e-05
0.000762271
8.94973e-05
0.000242368
-0.00108298
0.000912419
-0.000970884
-0.000491424
0.00101231
0.00143225
0.000645758
0.00112488
0.00229745
-0.0023486
0.000882189
0.00103456
-0.00200588
-0.001201
0.000689573
-0.000425315
0.00093197
0.000225427
0.000179823
0.00354159
0.00317846
0.00120834
-0.000906044
-0.000936993
-0.000488244
-0.00166724
-0.000925282
0.000460112
0.000560516
-0.0083449
0.0030685
-0.00106203
-0.00116501
-0.000555435
-0.00205455
0.0031511
0.000609654
0.000987487
0.00298835
0.000616338
0.0015146
0.00174886
0.00885147
-0.000226887
0.000479829
0.00346494
0.00552031
0.00271404
0.000739537
-0.000179937
-0.0025915
-0.0014218
0.00477669
0.0040819
-0.00140354
0.000344567
0.01324
0.00389489
-0.00388279
-0.00248037
0.0599854
-0.00172823
-0.0022607
0.00406796
0.0059771
0.0224482
0.0326689
0.000549732
-0.000513883
-0.00110062
0.013505
0.000314333
0.00220517
0.00830866
0.000432764
0.0011694
0.00274036
0.00194274
0.00102543
0.00203169
-0.00148134
0.00409335
0.00163643
-0.000823013
0.000960741
0.00179555
0.226549
0.113628
0.216931
0.0686261
0.0685758
0.0550353
0.0346271
0.0296757
0.0540527
0.0026549
-0.00277735
-7.50453e-05
-0.00453546
0.000753184
0.000658829
0.00274603
0.00206263
0.000578019
-0.000440433
-0.00102562
0.00119272
-0.00104663
0.00217093
-0.000393962
-0.000287669
0.000924518
-0.00082307
-0.000301958
0.0020178
-0.0025315
0.000794099
-0.00149697
-0.00049073
-0.00167776
-8.5059e-05
0.000391256
0.000364462
0.000186365
-0.000623154
-0.000597711
-0.00218035
-0.00145029
0.00130917
0.00168462
-0.000222648
2.51677e-05
0.00353686
0.00316192
0.00239032
0.015523
-0.00157334
0.0015297
0.0121421
0.0181598
-0.00208902
0.00908575
0.00562211
0.0154391
-0.00151218
0.00067348
0.00224348
-0.00118392
0.00798235
-0.00165481
0.00044912
-0.00168714
0.0171589
-0.00911107
0.0144823
-0.00406177
-0.0133412
0.0159652
0.00169594
0.0158134
-0.0010768
0.00153164
0.00113861
0.000461271
-0.000456598
-0.00243752
-0.0012656
0.00124843
-0.00196598
0.000361405
-0.00101108
-0.0006396
0.000106256
-0.00170171
0.00038386
-0.00135121
0.00120313
0.000357457
0.000541699
0.000319203
-0.00132076
0.000517553
-0.000116437
0.00117154
0.000107289
0.000185834
0.000487572
-0.00127442
-0.00187325
0.000602915
-0.00149625
0.00168446
-0.00123732
0.0024214
-0.00101384
-0.000563738
0.000415419
-0.00330266
0.000560388
0.00182833
-0.00225029
0.00140832
0.000661675
-0.00338162
-0.000604412
-8.10662e-05
0.0006071
-0.000729002
0.004734
0.000522815
0.00166332
0.00106135
0.00846766
0.00151082
-0.000507036
0.00226328
-0.000200631
8.69912e-05
-0.0015442
0.00146396
-0.0308627
-3.57275e-05
0.00317433
-0.00546844
0.00210952
-0.000221666
-0.00121487
-9.70069e-06
-0.00104656
-0.00183864
0.00175429
-0.000167662
-0.00142021
0.00146155
0.00179925
-0.00304518
0.00209107
-0.00161505
-0.00139149
-0.000174138
-0.000238184
0.000352661
0.000416677
1.26757e-05
-0.000107169
-0.00171938
-0.000655002
0.000335827
-5.9385e-05
0.000463697
0.000688809
-0.00167023
0.000993554
-0.000458583
-0.000518714
0.000853188
5.34421e-05
0.00113335
-0.00147696
-0.00883116
-0.00152017
0.000608527
-0.00113608
-0.000114622
0.00172189
-2.94441e-05
0.00202682
0.00219604
0.000477924
-0.00214893
0.000692716
-0.00111199
-0.000314795
-0.00111539
-5.14249e-05
0.0154003
0.0185477
0.0144251
0.0206545
0.00851236
0.00708281
0.000579325
-0.000943481
0.000930138
-0.000647696
0.00371822
-0.000242777
0.00105471
0.00157217
0.00161726
-0.000812257
-0.000558617
-0.000167459
-0.000362682
-0.000934573
-0.000296819
-0.00533972
0.00428755
-0.0001448