/*--------------------------------*- C++ -*----------------------------------*\
  =========                 |
  \\      /  F ield         | OpenFOAM: The Open Source CFD Toolbox
   \\    /   O peration     | Website:  https://openfoam.org
    \\  /    A nd           | Version:  11
     \\/     M anipulation  |
\*---------------------------------------------------------------------------*/
FoamFile
{
    format      ascii;
    class       surfaceScalarField;
    location    "40";
    object      phi;
}
// * * * * * * * * * * * * * * * * * * * * * * * * * * * * * * * * * * * * * //

dimensions      [0 3 -1 0 0 0 0];

internalField   nonuniform List<scalar> 
37779
(
0.0089154
-0.0533316
0.0233407
0.0210135
0.0534648
0.0229425
-0.0949635
0.0185641
-0.0232414
0.105025
-0.0932617
0.0114768
-0.0215897
-0.00100499
0.0244974
-0.00192139
-0.0175116
0.0305702
0.0404135
0.0638421
-0.0300992
-0.0158876
-0.0178349
-0.00303951
0.0012358
0.0177297
-0.0158991
0.00215642
0.00037241
-0.0189608
0.0163885
0.00732563
0.0198562
-0.00146284
-0.0257339
-0.000215781
0.0131624
0.00275064
-0.0156848
-0.00354516
-0.0648375
0.0684768
-9.33014e-05
0.0113095
-0.0153823
-0.00192613
0.00599187
-0.00189348
0.00740998
0.00337816
0.0240954
0.0530369
-0.143697
0.0665408
-0.0374934
0.00916308
-0.0114412
0.0397809
0.0160181
0.0582855
-0.00157178
0.0816114
-0.018396
-0.0616362
0.012898
0.00395088
-0.00827818
-0.00862785
-0.0287767
0.0837418
-0.0348375
-0.0201374
0.000568827
0.0131708
0.0040584
-0.0178006
0.000329377
0.0129317
-0.0361949
0.022915
-0.0256764
-0.0197408
0.0365834
0.00880995
0.0154131
0.0130824
0.0116524
-0.0401543
-0.066102
-0.0654433
0.0804152
0.0511294
0.000553601
-0.0189122
-0.0260995
-0.0127363
0.00545721
0.0333991
-0.00746955
-0.0337762
0.038211
-0.00199092
-0.00132133
-2.1975e-05
0.00333558
-0.00406899
-0.000303027
0.00237966
-0.00248003
-0.00105535
0.00221081
-0.0115635
0.0314803
0.0205701
-0.0029935
-0.00355523
-0.035282
0.000348612
0.000229172
0.0346951
0.00484448
-0.0106329
0.00279954
-0.0183491
-0.0744551
0.108129
-0.0153295
0.0200587
-0.0254429
0.0158269
-0.0105144
-0.0351632
0.025623
-0.0101815
0.0184393
0.0455405
-0.0273619
-0.0366396
0.0284345
-0.00616543
-0.0074746
-0.0147935
0.00183278
0.0044638
0.0137111
-0.011415
0.0360388
-0.0240447
0.0129281
-0.0419152
0.0652867
-0.0362645
-0.0192395
0.0171561
-0.00398104
0.00609385
0.0316347
-0.0163161
0.0284122
-0.0438035
0.00525079
-0.00837584
0.00802873
-0.00491484
0.0144577
-0.00804378
-0.0256324
0.00881025
-0.022285
0.00932895
0.00414649
0.014267
0.0098197
-0.0135803
-0.0105081
-0.0011323
0.00219305
0.0061155
0.0010274
0.0018793
-0.0040402
0.0335635
-0.0492452
-0.00458334
0.0202923
0.0476406
-0.0708883
0.0329712
-0.00974032
-0.00143735
0.0343563
0.0406492
-0.073572
-0.0229536
0.0150615
0.00165079
-0.0388519
0.000918027
-0.0525136
-0.0568566
0.0836999
0.0256737
0.0121621
0.00116505
-0.00043124
-0.0373054
-0.0132232
0.052371
-0.0037763
0.0113541
-0.00494887
-0.00251203
-0.000867423
0.00869489
-0.00899242
0.00117446
-0.0348916
0.0311375
0.00346721
0.000292893
-0.0158275
0.0156772
-0.0164179
0.0165938
0.00337375
-0.0117986
-0.0307823
-0.024423
0.0600132
-0.0048031
0.0807123
-0.0422998
-0.030238
-0.00816088
-0.0179842
-0.00447534
0.0381683
-0.01573
-0.0299191
-0.0349911
0.0486628
0.016221
-0.0196905
-0.0145902
-0.00299123
0.031
-0.0487966
-0.00533821
0.0231843
0.0300277
-0.0494939
0.013476
0.00598267
0.043914
-0.00165569
-0.0238024
0.0106161
-0.00545375
-0.0135565
0.00837814
0.0112047
-0.00933645
-0.0210847
0.0192844
0.00192692
0.0450893
-0.0229241
-0.0241025
0.00494362
0.0230713
0.00561595
-0.0336152
-0.0151227
0.0162001
0.00926688
-0.0103476
-0.0177335
0.00769611
-0.00508726
-0.0162774
0.0264063
-0.0119162
0.00180012
0.0234444
0.0180234
-0.00714945
0.00332364
0.109937
-0.0872483
-0.0260182
-0.0556081
0.0476833
0.031253
-0.00137244
0.0320311
-0.0158455
-0.0148208
-0.0534991
0.0287607
0.0290606
-0.00431326
-0.029196
-0.178404
0.0865775
0.0166404
-0.0643604
0.0444721
0.0032643
0.0120311
-0.0206973
0.00605467
0.00264905
0.0698849
-0.071442
0.0112755
-0.00973162
-0.0400797
0.00650488
0.033361
-0.0914195
-0.0670015
0.103319
-0.0176517
0.0162416
0.00839117
-0.00696852
-0.104136
0.0498471
0.0732703
-0.0189731
-0.0353099
0.143409
-0.0362075
-0.0718637
0.115338
-0.0112815
-0.0233378
0.015159
-0.00836833
-0.00180309
-0.00497505
-0.0227676
0.0671626
0.00369773
-0.0480916
-0.0392033
-0.00616506
0.00701152
0.020583
-0.0214197
0.0212465
-0.0181759
-0.0262975
0.0683335
-0.0362081
-0.0302033
0.0440292
0.0523099
0.00713132
-0.103478
0.0236295
-0.0387093
-0.00323471
0.0183334
-0.0039178
0.0237796
0.00856951
0.0367936
0.0722768
-0.0452319
-0.0202857
0.110145
-0.0306506
0.011638
0.00574057
-0.0320446
0.0147018
-0.00784469
-0.0120122
0.0119358
0.00789962
-0.0322741
0.138129
-0.0554254
-0.0825583
0.0633104
0.0433252
-0.0905353
-0.052713
0.109151
-0.0205043
0.0106187
-0.00641888
0.0163349
0.0194843
0.0103796
0.00724499
-0.0371109
0.0267653
-0.0240816
-0.010705
0.00802345
-0.0178239
0.0150174
0.0133831
-0.0200069
0.033684
-0.00188642
-0.0117911
0.0318028
-0.0352857
-0.0165208
0.0751887
0.0991123
-0.0643747
-0.0409798
0.12903
-0.0543663
0.040114
-0.0492922
0.0632976
-0.0381841
0.0834421
0.0199704
-0.0312113
0.0167907
0.0380597
0.00140024
0.000230458
-0.00564078
0.00400987
-0.00971075
0.0245141
-0.00112122
-0.00450381
0.00585817
-0.000988652
0.0152594
0.0242737
-0.038538
-0.000373619
-0.0563717
-0.00935715
-0.00142535
0.0307461
0.000971538
-0.0302891
-0.0011413
0.0528642
-0.00208968
-0.0496155
0.00380336
-0.0166558
0.011106
0.00176073
0.0692359
-0.00334197
-0.0454009
0.00896305
0.00344012
-0.0099015
0.00109525
0.00828955
-0.00415267
0.0313896
-0.0370859
0.0457295
-0.0400424
-0.0140384
-0.00917767
-0.00688474
0.0220233
-0.0207287
0.00478529
-0.00607379
-0.0602403
0.0128487
0.0690182
-0.0216139
0.0131195
-0.0128164
0.00431238
-0.00466433
0.0373555
-0.0504688
0.0163203
-0.096577
0.0360274
0.0442363
-0.00285133
0.00327294
-0.00456235
0.00414077
-0.0160743
0.00217301
0.0110492
0.111647
-0.000416939
-0.0886633
-0.0225122
-0.00906066
0.00349156
-0.00247978
0.0080494
-0.0362699
-0.00601085
0.00408765
0.0381381
0.0170381
-0.0413113
0.00800465
-0.0509902
0.0700987
-0.00385428
-0.0152785
-0.0194997
-0.00903228
0.0495802
-0.021052
-0.00659405
0.00892183
0.00755925
-0.00988848
-0.0161538
0.00759013
0.00197064
0.00775256
0.00745548
0.0487673
-0.0656472
-0.00890337
0.0257833
-0.0133552
-0.0581299
0.0415627
-0.0123061
0.00404401
0.0522975
-0.011037
-0.0142875
0.0162805
0.00173964
-0.00268703
-0.00440467
0.00534584
-0.00647915
0.0126216
-0.00440418
-0.00240677
0.00790012
-0.0354219
0.0299247
-0.0187302
0.0183255
-0.000355689
0.000865381
0.0321624
0.0196134
-0.0223622
-0.0293586
0.00619245
0.00573867
-0.000197961
-0.011702
0.0193469
-0.0223349
-0.0278743
0.0308562
0.0112114
-0.0259919
0.0197335
0.0022217
0.00336309
-0.00270596
-0.00287899
0.00331987
-0.00173641
0.000639122
-0.0246039
-0.13353
-0.00121184
-0.000759151
0.0053398
0.00747336
0.00391456
-0.00806624
-0.0104314
-0.00579873
0.0270382
-0.0108118
0.00562393
0.000638274
0.000908491
-0.000136462
0.0043692
-0.00513903
-0.00437535
-0.0057816
-0.0196331
0.029767
0.00243504
-0.00768597
-0.00836694
-0.00674921
0.00257324
0.00661104
0.00184101
-0.00996394
0.00137364
0.0205382
-0.0177223
-0.000630684
-0.00216595
-0.0227567
-0.0159739
-0.0267154
-0.0556364
-0.0490328
0.066065
-0.118402
0.019522
-0.00197399
0.10086
-0.017874
-0.0106688
0.00922518
0.0626242
0.0245361
-0.073886
-0.0132846
0.0545705
-0.00711469
-0.0132123
-0.0342465
-0.0078804
-0.12691
0.0995082
-0.0168642
0.0150103
0.00807642
-0.0133006
0.0204675
-0.00335015
-0.0458356
0.04684
-0.0052298
0.00421533
0.205326
-0.0548417
-0.088324
-0.0621654
0.0173856
0.000926388
-0.00981878
-0.0084695
-0.0155082
-0.0186006
-0.000512376
0.0346324
-0.0107287
0.0130122
-0.00137783
0.00861976
-0.0607312
-0.00111701
0.0167762
-0.0394412
0.0237728
-0.0652878
0.0672459
0.0510599
-0.00237014
-0.00265568
-0.0216711
0.0266799
0.0563969
-0.0339851
-0.0522598
0.0298435
0.0424766
-0.0359331
0.0321539
-0.0386791
0.00766232
0.00391843
0.000467693
0.0227196
-0.0316122
0.00453862
0.00435307
-0.00158225
0.0120364
-0.00774252
-0.0025988
0.00930148
0.00960445
0.00381315
0.0122658
-0.00203248
-0.00263372
-0.00760359
0.0108657
0.007682
0.00521202
-0.0237393
0.00706795
0.00285465
-0.00265748
0.00578195
-0.00597917
0.00385013
-0.00302944
0.0232587
-0.00195677
-0.0119996
0.0163535
-0.0707758
0.0266609
0.0277637
-0.00894704
-0.0332315
0.037905
0.00429918
-0.0118993
0.0134881
0.0223384
-0.0239279
-0.204523
-0.0614672
0.161863
0.0516866
0.106005
-0.135478
-0.0222036
-0.00417421
0.0253799
-0.0278545
0.00663602
-9.62707e-05
-0.00103811
0.00452646
-0.00340374
0.0450065
-0.0096276
0.0273889
-0.0142486
-0.0169434
-0.0961503
0.034281
0.0225602
0.0393108
0.0259886
0.0340394
-0.0406862
-0.0193272
-0.0253274
0.0991028
-0.0323638
-0.0413815
0.000503484
-0.0117476
-0.00685798
0.0181198
0.0142116
-0.0287499
-0.0457317
0.0431822
-0.0169935
-0.00618376
-0.0200124
-0.102973
0.095945
0.00665115
0.0166597
-0.027469
-0.0187998
0.0296113
0.000435236
0.0208032
0.0226725
0.0188553
-0.0305438
0.00655597
0.00513408
0.0324432
-0.0129296
-0.000653646
-0.0177122
0.0053533
0.0144276
-0.00940379
-0.00645046
0.00143545
0.0248548
0.0115356
-0.00394802
0.0114682
-0.0205582
0.0285221
-0.0194367
-0.0179226
-0.0515918
0.0572045
-0.0634191
0.0476046
-0.0377307
0.0124791
-0.000842362
-0.0145975
-0.0102989
0.0114066
0.013497
0.00896541
-0.0132892
0.00273961
0.00158052
0.0240125
-0.0446127
-0.0330997
-0.00309228
0.0344878
-0.0209743
-0.0104125
0.0269523
0.00602473
-0.00579032
-0.00044239
-0.00706939
0.00116697
-0.0142134
0.0072502
0.00901923
0.0407993
-0.0187875
0.0251
-0.0230577
0.0411357
0.0668276
0.0330623
-0.0126155
-0.0872678
-0.0280732
-0.018271
0.0110561
0.0352991
0.00750269
-0.0127996
0.00402804
0.00129476
0.0463692
0.0130119
-0.0598072
0.0080591
0.00169547
0.0333011
-0.043031
0.0243517
-0.0325834
-0.0199877
0.0282487
0.0403165
0.00826463
0.0012629
-0.022269
0.0127286
0.00892705
-0.00605929
0.00537801
0.0169171
0.0144619
0.00576219
0.00019652
-0.00327395
-0.00271133
0.0134298
-0.00810659
-0.0239544
0.0186422
-0.00183662
-0.013034
-0.00277791
0.00129119
-0.000617716
-0.00126121
0.000586133
-2.39516e-05
0.00346247
-0.0491467
-0.0370945
-0.00517572
0.0391875
-0.0514352
0.035997
-0.0237815
0.0135322
0.00144059
-0.0180534
-0.0662858
0.0933226
-0.0229924
-0.0202611
0.0489237
0.0189336
-0.000547472
-0.0180682
-0.0244092
-0.0298975
0.0128833
0.0414245
-0.024115
0.00278288
0.00348152
0.0181955
-0.00336563
0.012904
-0.0277204
-0.0578269
0.00793058
0.05791
-0.00798843
-0.0163073
-0.0201993
0.0185859
0.0180423
0.0138147
0.0297385
-0.014919
-0.0286281
0.0239991
-0.0168926
0.00954959
-0.0281898
-0.0392513
0.0422465
0.0251961
0.0266573
0.0134224
-0.0173459
-0.0227625
-0.157928
-0.00398897
0.0521317
0.109787
-0.0198469
0.0242144
-0.00614027
0.00195345
-0.0739503
0.0596997
0.0107035
0.00430508
-0.042086
-0.00324325
0.041116
-0.00335073
-0.00986547
-0.00728196
0.0242356
-0.0376369
0.0361321
-0.0227877
-0.01921
0.0263531
0.0130514
-0.0202455
0.0285965
-0.0386849
0.0483071
-0.0382098
-0.011572
0.0544214
-0.0120289
-0.0308044
0.0925482
-0.0556937
0.0062561
-0.0430911
0.0111369
-0.0227515
0.0239992
-0.0123116
0.0280611
1.42085e-05
-0.0299467
0.00188715
0.0843747
-0.0920076
-0.115922
-0.0798657
0.016966
0.0292639
0.0336277
-0.00198776
0.0145882
-0.0118104
-0.000755524
-0.000668103
-0.00240734
0.000462883
0.00261475
0.00298512
-0.0146287
0.00966432
0.00362918
0.000408408
-0.0047039
-0.00496947
-0.00509643
0.00773355
0.00237236
0.100797
-0.0841189
-0.0350298
-0.00272658
0.0403216
-0.024642
-0.00526774
0.0166768
-0.0421943
0.0455678
0.0400781
-0.0187898
0.0153194
-0.00678552
-0.0189597
-0.0142018
0.00839753
0.0179563
0.027285
-0.00981799
-0.0109991
-0.00647282
-0.00733575
0.014813
0.0198077
0.00540233
2.39634e-05
-0.0123045
0.00688937
0.0043765
-0.00852876
-0.00635477
-0.00732632
0.0102626
0.0034289
-0.00640009
-0.0117852
0.0118362
0.0196609
-0.0291123
0.000514467
0.00777559
-0.00294854
0.000615299
-0.00222325
-0.00377216
-0.00847896
0.00244776
0.00278785
0.00315928
-0.0059169
-0.0294966
0.0107977
-0.0198219
-0.0132097
0.0220249
-0.00971597
-0.0138785
0.0392211
-0.0165973
-0.015028
-0.00759181
0.00706276
0.00127284
-0.00584478
-0.0024929
-0.00796155
0.00610807
0.00891488
0.0179341
0.0220219
-0.00743002
0.0460669
-0.00816533
-0.0338671
-0.004094
-0.0096105
0.0119009
-0.0245268
0.0222534
0.00115188
-0.000433527
0.00995373
-0.00138312
0.0144947
-0.00160687
-0.0115126
0.0239593
-0.0609576
0.0355655
0.000847158
-0.0110231
-0.00852849
-0.00290072
0.00785091
0.0122232
-0.0178508
0.0497354
-0.0658651
0.0584272
-0.0525296
-0.0311803
0.00128984
-0.000429022
-0.00713107
0.00618893
0.00363414
0.00661135
0.0163992
-0.0516651
-0.0116916
-0.00122659
0.0645758
-0.0387543
-0.0185271
-0.0292305
0.0865181
0.00898473
0.0104274
-0.010601
0.0204294
-0.0117287
-0.00800626
-0.000750406
-0.124114
0.180938
0.029359
-0.0334657
0.0175471
-0.0263768
0.0423103
0.00951857
-0.0254478
0.00166435
0.00947799
-0.0269637
0.0158337
0.0754652
0.002587
-0.060306
-0.0177528
-0.0449346
-0.0582996
0.0219906
-0.00509623
-0.00524652
-0.0116186
-0.000147333
0.00354768
-0.0107483
-0.0612224
-0.0418408
-0.0153193
-0.076034
0.0824681
0.105221
0.00680275
0.00181924
-0.00592126
-0.00271484
0.0628378
-0.0395373
-0.0246753
-0.041274
-0.0493768
0.0783083
0.0123425
0.00847307
-0.0416104
0.0421334
-0.00899755
0.00651729
0.0176384
-0.0156815
-0.030913
0.0271572
0.0029167
0.0482324
-0.00499009
-0.00536504
0.00419875
0.0380259
0.0253913
-0.0262585
-0.00977501
0.0620234
-0.0320006
0.013753
0.00235816
0.0159065
0.00176347
0.00211324
-0.00248344
-0.00139548
0.00155723
-0.000388614
0.000598665
-0.00312956
0.0065641
-0.0286002
-0.0221522
0.0244038
0.0263452
0.0206494
-0.0247371
0.0165337
-0.0124418
0.0122192
-0.0116135
-0.0373827
0.0366956
0.00555964
0.0042786
0.00953768
-0.00981977
-0.0164297
0.0118045
0.0144218
-0.0289145
0.019182
0.00581091
-0.0301225
0.0105133
0.0511832
0.00338523
-0.00028454
0.0142828
-0.0421016
0.13732
0.0586352
0.0105635
-0.0496769
-0.0195
0.000265952
0.00528606
-0.102409
0.00972815
0.0248242
0.0678448
-0.00763382
-0.0354815
0.0167499
-0.0984587
0.017501
0.0655726
0.0118492
-0.0260651
0.00877106
0.0304048
-0.0298651
-0.00372353
0.00319093
-0.00277397
0.0435725
-0.0371686
-0.0141786
-0.0150288
0.048245
-0.0190155
0.0737419
0.0518441
0.0073064
-0.140517
0.0813653
0.0721025
0.021911
0.0272289
-0.0454214
0.0364284
-0.0182328
0.104561
-0.0802353
0.00706289
-0.0241759
0.019042
-0.0112295
0.0163127
0.0439278
-0.0690664
-0.016563
0.0416992
-0.0522027
-0.0111498
0.0281624
0.0671099
-0.0693694
0.0133297
0.097703
-0.0187766
-0.0199504
0.00718556
0.0315432
0.0117005
-0.140561
0.0598042
0.00963398
-0.0213766
0.0120447
-0.000308638
-0.0160212
-0.000811269
0.00121018
0.0156205
-0.0029291
-0.00513291
-0.0239235
-0.00991736
0.0135166
0.00756004
-0.0111947
-0.00963548
0.00113497
-0.000260601
0.00877138
-0.0216934
0.0140482
0.0323867
-0.0167476
-0.00600568
-0.00506924
0.0129718
-0.0292774
-0.0276186
-0.00613914
0.0381191
0.0157795
0.0542245
-0.0101985
3.71278e-05
0.0267045
-0.0165495
0.0923394
0.0134353
0.0219056
-0.0334681
-0.0133161
0.024891
0.01482
0.0299916
0.00117481
-0.0459906
0.00192207
-0.00705146
-0.0081611
0.0113755
-0.0373779
0.00982411
0.0161692
-0.0639678
0.0499931
0.0081426
-0.0145747
0.0067555
-0.0366465
0.0222754
-0.0372892
-0.00380087
-0.00014876
-0.00310762
0.00705059
0.00453693
1.12089e-05
-0.00428306
-0.000273277
-0.00494646
0.00435119
-0.00683301
0.00743056
5.23443e-05
0.00126157
-0.00222441
0.000909753
-0.00827817
-0.00282816
-0.00993801
0.0210495
-0.0826156
-0.0257055
0.0612352
-0.0323302
-0.0196301
0.111933
-0.0599845
-0.00574981
-0.0177135
0.0147762
0.00864587
-0.00972099
0.0110839
-0.0156489
0.0142888
-0.000596799
-0.000173029
0.000927741
-0.000159679
-0.00103667
-0.00193772
0.000673179
0.00229761
-0.00325917
-0.00148967
0.00222694
0.00251904
-0.0669178
0.100062
0.0319746
-0.0651192
0.00732041
-0.00101408
0.00746442
-0.0137616
0.000294717
-0.00332715
-0.00197043
0.00499505
0.0181852
-0.0112622
0.019847
0.0115224
-0.00781456
-0.00609998
0.00119293
-0.00204188
-0.00160552
0.00245946
-0.000793355
-0.00554801
0.00307787
0.00242298
-0.00156759
-0.00357092
0.00271173
0.00124958
0.00149701
-0.000637484
-0.000943346
-0.00299605
0.00447898
-0.000546529
-0.0549755
0.0315738
0.052034
0.011593
0.012059
-0.0127755
0.0140928
0.00180239
-0.0209737
0.00508004
0.0102975
0.0173125
-0.013514
0.00233503
0.00708303
-0.0173851
0.00793975
-0.0170892
0.032275
-0.0245187
0.00932931
0.000760568
-0.0529279
0.0479413
0.00424101
0.144753
-0.147354
0.0544361
-0.0546426
-0.0407282
0.0655173
0.029871
0.0777213
0.079506
-0.0266511
0.0827783
0.000479147
-0.00552701
-0.0703938
0.0335617
0.116344
0.0454491
-0.0330605
0.0412774
0.00186132
-0.00957531
0.0317957
-0.0067522
0.00853281
0.0282946
0.0250788
0.00930008
-0.0128455
-0.0214917
-0.0230759
-0.0224187
-0.050657
0.0725642
0.022774
-0.0758107
-0.0293684
0.0502673
0.0278672
-0.00860612
0.00799681
-0.018895
0.048686
-0.00624549
-0.0427831
0.000344639
0.000478337
0.00453318
-0.0116649
0.00660694
0.0317544
0.00285316
-0.0360296
-0.165989
0.130782
-0.0844588
0.119671
0.0194727
-0.0109266
-0.00441719
-0.00414723
-0.001462
-0.00830111
-0.000683912
0.0104636
0.0222122
-0.0116812
-0.0119935
-0.0361037
-0.010301
0.0221515
0.0242665
0.00854568
-0.0580187
0.0621196
-0.0126156
-0.0457844
-0.0333443
-0.017953
-0.00013782
0.0226011
-0.00455732
0.0617817
0.0333047
0.0430495
-0.0193491
0.032009
0.00261347
-0.015269
-0.00861434
0.0238527
0.0181714
-0.020304
-0.00571553
0.0524617
-0.0373839
-0.0336178
0.018533
-0.0522783
0.0770516
0.0143141
-0.100836
0.0578962
0.0286214
0.00167322
0.0227855
-0.013477
-0.0107784
-0.0358504
0.0127829
-0.0152749
-0.0451489
-0.0222519
-0.0354256
0.0218184
-0.0103085
0.0322812
0.000825923
-0.0227945
0.0101041
0.0112455
-0.0157746
-0.00556239
-0.000134801
0.00501673
-0.0151837
0.0263249
-0.0221964
0.00808135
-0.0179161
0.00970088
-0.0185071
-0.0119463
0.00238551
-0.000980655
-0.0232899
0.0238089
0.000465667
0.0251656
0.00346532
-0.00703531
-0.0216298
-3.56526e-05
-0.00290125
0.000182164
0.00274092
0.0073602
-0.0014309
-0.00643165
0.000519647
0.00221217
-0.00141353
0.00675426
0.004364
0.00650814
-0.00350692
0.0297526
-0.0687282
0.0386584
0.000311651
0.0419907
-0.0121129
0.0181929
0.00558465
-0.120119
0.0408922
-0.0534661
0.00664875
-0.132996
0.00622603
-0.0423137
0.0912367
-0.0080317
-0.0497981
0.01414
-0.00732912
0.0260022
-0.0231452
0.00448679
0.0349544
-0.0920803
0.00645724
0.00803964
-0.00307842
-0.027793
-0.0418543
-0.0659911
0.135644
-0.0306365
0.0710763
-0.0269073
-0.0106955
0.00823082
0.0637797
-0.0613126
-0.00202464
-0.032541
0.0480476
-0.0134826
-0.0298913
0.0392685
0.00444706
0.0150419
-0.0277066
-0.0205402
0.0221217
0.029996
-0.0266213
-0.02558
0.00307666
-0.000449611
-0.00366924
-0.0623228
0.125308
-0.036912
-0.0176844
0.0220562
-0.0830682
0.0343633
0.0688999
-0.0201941
-0.000275521
0.0131759
-0.0102089
-0.0026848
-0.000241533
0.011301
-0.0113355
0.02232
-0.00461295
-0.0540827
0.0435877
0.00107447
0.00942142
0.0225258
0.0069809
-0.0176058
0.0480602
-0.03055
0.0355779
-0.173011
-0.0728614
0.0238986
-0.0249903
0.0369132
-0.0358302
-0.133375
-0.0312885
0.121166
0.0435142
-0.0424301
0.0586196
-0.00623392
-0.0112097
0.00747823
0.00996892
0.010488
-0.0241978
0.00748091
0.0273851
0.0340798
-0.0245051
0.000920394
0.0374863
0.00303654
-0.0217069
-0.0188586
-0.0812888
0.12758
0.00176558
-0.00795249
0.000254701
0.0107131
0.0172306
0.00226128
-0.0274229
0.00798951
0.0493452
-0.0723273
-0.00756324
-0.0208352
0.0145388
-0.000467712
0.00673361
-0.0171538
0.0313281
-0.0259524
0.0117911
-0.0116595
0.0248159
0.0617799
-0.00983114
-0.0071772
-0.0447784
-0.0575208
0.0255775
0.0332218
-0.0506768
-0.0192631
0.00677024
-0.0164162
-0.0583813
-0.0541848
0.0550439
0.0121948
-0.0124729
-0.0041786
0.00445685
-0.0115168
0.0115006
-0.00144105
0.00145694
-0.00148526
-0.00268764
0.0117944
0.00466869
-0.00426831
0.0239759
-0.0382302
-0.0391368
-0.0114931
0.0227969
0.00849604
0.00152644
0.00237963
0.0110996
-0.00391677
0.0495103
-0.00856279
0.0195973
-0.000561334
-0.012517
-0.0065213
-0.00298434
0.00585188
-0.00113752
-0.00172622
0.00399439
-0.00119085
-0.00160815
-0.0138874
0.0149655
0.011428
-0.0125095
0.0259271
-0.0014628
0.00771634
-0.00125572
0.0114713
-0.00839742
-0.00179398
0.00547213
0.00109524
-0.00243437
-0.00412228
0.0125439
-0.0232449
-0.00396715
-0.0177225
0.0390211
-4.70479e-05
-0.0212425
0.00227644
-0.00319594
-0.0478678
-0.0136932
-0.00743034
0.00317704
0.028332
-0.0261556
0.0221856
0.00661667
-0.0271666
-0.00165405
0.0440166
0.0969129
-0.102852
-0.0380672
0.0124403
-0.0168786
0.00619621
-0.0016021
0.0141233
0.0112151
-0.00909992
-0.0088862
-0.0057157
0.0929666
-0.0364295
-0.0247337
0.0922499
-0.0479984
-0.0018528
-0.040808
0.0470065
-0.0043287
-0.0178936
-0.000512385
0.0166058
0.0108795
-0.0302042
0.0135196
-0.0205282
-0.00699075
0.0229335
-0.00823278
-0.00771528
0.00269787
-0.0223482
0.0250057
-0.00535582
0.00723922
0.0124837
-0.011339
-0.00838677
-0.00834086
0.00614814
0.00685574
-0.004676
0.00592147
0.0061787
0.00820852
-0.0477451
-0.00140414
-0.0493133
-0.0245669
-0.0199638
-0.00797889
-0.0134326
0.0342085
-0.0194582
-0.00137164
0.0117194
-0.00611613
-0.0091222
0.00353183
-0.108094
-0.10213
0.0858364
-0.0502482
0.0677469
0.0782101
-0.0957009
-0.0599498
-0.0407621
-0.00737861
-0.0333351
-0.0768636
0.013277
0.00519439
-0.0176954
-0.000767672
4.60918e-06
-0.0274901
0.00336308
-0.000885416
-0.0159702
0.0134567
0.000119313
0.00132871
-0.00110551
-0.000343351
0.00118768
-0.00111756
4.44366e-05
0.012362
-0.00832908
-0.00854075
0.00450716
0.0347239
-0.028323
0.00880951
-0.0152302
0.00316054
-0.0170867
0.0148549
-0.0144085
0.0108447
0.00723572
-0.00371125
0.0268389
-0.0152714
-0.0295639
-0.0459215
0.104719
-0.0865893
-0.0393612
0.0198549
-0.0242108
-0.00331307
0.0161877
-0.0247671
-0.0419508
-0.0135429
-0.0308934
0.000177811
-0.0112422
0.0246483
0.0163498
-0.025082
-0.0159118
-0.027185
-0.0225771
-0.0136599
-0.069581
0.0383605
0.0903755
-0.0591816
-0.022858
0.036278
0.0411467
-0.00441762
0.0512294
0.0286517
-0.00250386
0.000901692
0.00790407
-0.00630542
-0.0108143
0.00479842
0.00350934
0.0312019
-0.0163184
-0.0333802
-0.0495518
0.0164216
0.00673978
-0.00767624
0.0061757
-0.0052407
0.00357233
-0.00764432
0.0097639
-0.00646463
0.0564309
-0.0598235
0.00303358
0.0369049
-0.0410703
0.031896
-0.0234433
-0.0261428
0.0176829
0.000977198
-0.00548779
0.0151237
-0.0105971
-0.00157583
-0.0212284
0.0307467
-0.0079187
-0.00197634
0.0514481
0.0150735
-0.0646148
-0.0080723
0.0185785
-0.0179734
0.0117478
0.00162072
-0.0204849
0.0201157
0.0370724
0.00837562
-0.0655703
-0.013871
-0.0114813
-0.0218965
0.0472697
-0.02108
-0.00654079
-0.00634911
0.0339751
0.0056576
-0.0017901
-0.0132745
0.00941798
-0.0161972
0.00557516
0.0162824
0.0656286
-0.0507328
-0.0166848
0.0292078
0.0202254
-0.00335775
-0.0251479
-0.007987
0.036451
0.117879
-0.028674
0.116371
0.0307165
0.0262213
-0.00939676
-0.00998949
-0.00682609
0.0129062
-0.00779667
-0.000286288
-0.00483823
-0.0141809
-0.013186
0.0156484
-0.00295011
-0.029002
0.0565033
-0.0245246
0.00176826
-0.0995213
0.0447486
0.0530024
-0.0590143
-0.0114368
0.0527601
0.0176902
0.043363
-0.050327
-0.0305845
0.0375519
0.00259814
-0.111288
0.114774
0.00211338
0.0069189
-0.00147453
-0.0003475
0.021686
0.0117476
-0.0330912
-0.00418789
0.000988129
-0.000699343
-0.00645556
-0.00178865
0.00893854
-0.023468
-0.0122186
0.038038
-0.0390361
-0.0183543
-0.00212387
-0.00980334
0.0102691
-0.0288826
0.0117638
0.0267688
-0.0506403
0.102607
-0.0281221
-0.00955121
-0.00010411
-0.0011408
0.00054948
0.000695399
0.000669786
-0.000292106
-0.000482727
0.0806471
0.028624
-0.0167202
0.038349
-0.0230882
0.0144849
0.0708974
-0.00626295
-0.02031
-0.044329
0.00492696
0.0201364
-0.0109482
0.0379497
-0.069514
0.0323212
-0.0480535
-0.0861257
0.0906626
0.0399176
-0.0446026
0.0842509
-0.0286465
-0.0249901
-0.030594
-0.0234024
0.0411594
0.00834065
-0.0260936
-0.00519382
0.0365567
0.010843
0.000743932
-0.0157303
0.0041783
-0.0172731
0.0338098
-0.0297322
0.0131867
0.00618904
0.0162344
-0.0119659
-0.0104931
0.0359936
0.000130674
-0.0427224
0.022774
0.0231902
-0.00491207
0.0337172
0.0245774
-0.053405
0.00984626
-0.00586948
-0.00505639
0.00107311
0.00375488
-0.00745186
-0.00554891
0.00161244
-0.0269678
0.00300147
0.00666547
0.0143308
0.0125609
-0.0376133
0.00916864
0.0430827
-0.0170974
-0.117768
0.0917722
-0.0182713
-0.0168988
-0.0400391
0.0751755
-0.0159248
0.0282346
0.011666
-0.00314834
0.0224498
-0.014479
-0.0331541
-0.0361629
0.00475415
-0.00510936
0.03652
0.0964732
0.00389862
-0.0304984
-0.0101607
0.0215432
0.00714443
-0.0186549
-0.253794
-0.0256208
0.00871644
-0.00908731
0.019954
-0.0195899
-0.000733155
-0.0044835
0.00496678
0.000256164
0.00192356
3.48919e-05
0.0125047
-0.0144578
-0.0121493
0.0133386
0.0170709
0.000506637
0.01634
-0.0338988
0.00901847
-0.0017884
-0.0187795
0.0115561
0.00131492
-0.00718774
0.014888
0.0239366
-0.000735019
-0.0191409
0.0196064
-0.00969845
-0.0326689
-0.00110181
-0.000103293
-0.000443229
0.00164932
-0.000325374
-0.000623787
-0.000152529
0.0114509
0.00916
-0.0276024
0.00117202
-0.0010059
0.00204999
-0.00221569
0.000547601
0.000521133
-0.000790825
-0.0021705
0.00231426
0.000648206
0.00353614
-0.00586844
0.00154199
-0.0360677
-0.00288936
0.00145042
-0.0861224
0.021336
0.00695777
-0.0210394
-0.00357218
0.0258611
-0.00125661
0.00900198
0.00219326
-0.000237678
-0.0109699
0.0098183
-0.00197868
0.00115683
0.0126374
4.97938e-05
-0.0104964
0.0199004
-0.0325094
0.0224287
-0.00719808
-0.00758832
0.0133926
-0.00281146
-0.022429
-0.0400734
0.0255382
-0.0492795
0.000779192
0.0229159
0.0662881
-0.0537013
-0.0155008
0.0284499
-0.00979371
-0.00316059
0.00566848
0.010905
0.00177282
0.0230703
-0.0109781
-0.014788
0.00273276
0.0777709
-0.0839531
-0.0271161
-0.0117784
0.0088704
-0.00553446
-0.0364523
-0.0402283
-0.0314192
0.00943487
-0.00216038
0.024123
0.0310621
-0.0194275
0.0132363
-0.0223024
0.0169821
0.020687
-0.00149475
-0.00764999
-0.0115108
-0.017367
0.0331361
0.00668032
0.0112155
0.0176172
0.019856
0.00702309
0.00620791
-0.00643233
-0.0899753
0.0369806
-0.0209594
-0.092508
0.145133
-0.131332
-0.0228005
-0.0736553
0.0352373
0.00736918
0.00301169
-0.0263713
0.0160345
0.00534655
-0.0289289
0.00107623
-0.00651895
0.025826
-0.058221
0.0388968
0.0721917
-0.0179198
-0.00579578
0.0400757
-0.0248015
-0.000799474
0.00972308
-0.0287413
-0.0441371
0.0631073
0.0244783
0.114477
-0.0667649
0.0554187
0.00676352
-0.0541082
-0.0527184
-0.0327934
0.0696202
-0.00637747
-0.0106386
-0.0517146
0.0410716
-0.00524341
-0.0537466
0.0113113
0.0756249
-0.0458404
0.0520433
-0.0731462
0.04122
0.0358119
0.00814584
-0.0289873
-0.0149167
-0.01973
0.0508264
0.0144771
-0.0134283
-0.0174057
0.0111757
-0.0302502
0.00781251
-0.00576835
-0.00120955
0.0226678
-0.0202126
-0.0128943
0.00999871
0.015003
-0.0242901
-0.0268
-0.00253307
-6.99358e-05
0.0294465
0.0765676
0.0400166
0.0373044
-0.0370361
-0.00879068
0.00852897
-0.0287154
0.0223936
0.00139623
0.0411778
-0.0361885
-0.030304
-0.00611123
0.0261442
0.000643634
-0.0206768
-0.0995685
0.086574
-0.00219727
-0.0420464
0.028322
0.0159333
-0.0377769
-0.0381498
0.0340192
0.0461073
0.0242977
-0.0683003
-0.00210286
0.00698288
-0.0163739
0.0219255
0.00264174
-0.0167684
0.00275218
0.0114194
-0.00903362
0.0071148
-0.0113341
0.0132584
0.0228824
-0.0116367
-0.020278
0.00888467
0.0575648
-0.000826283
-0.00714492
-0.0495818
0.0365005
0.0756877
0.0063505
-0.0019246
-0.0149424
0.0148158
-0.00158635
0.0231454
0.00608944
-0.0044336
-0.00370893
0.00205833
-0.000525494
-0.00394558
-0.00192059
0.00639267
-0.058023
0.0376289
0.0200412
-0.0223434
0.00779123
-0.00953624
-0.00508343
-0.041185
-0.00955736
0.0558327
0.0447784
-0.036376
-0.0273324
0.00261533
0.00193369
-0.00164253
-0.0029049
0.00368574
0.0127307
-0.0975672
0.130785
-0.0306376
-0.0262459
-0.00819196
0.0115649
0.00281725
0.035953
-0.00231033
-0.00854278
-0.0296802
0.0467976
-0.043251
0.0261275
0.0229188
0.00128389
-0.0323818
0.00817254
-0.0731962
0.0550983
0.00964732
0.00846011
0.0613219
-0.0122468
0.0197665
-0.0688544
0.0428794
-0.0791481
-0.00765757
0.0439365
-0.00428021
0.00031707
0.00555105
-0.00160024
0.00213169
-0.00848657
0.00434497
0.00986769
-0.0104654
0.00373939
0.00257165
0.0041552
0.0048166
-0.00202006
0.00123745
0.0101215
0.00659854
0.0145244
-0.00238663
0.000207868
0.00341625
-0.000887178
0.00509916
0.0124501
-0.00656058
-0.0193829
0.0159696
-0.034394
-0.0452197
-0.0116457
0.0303482
-0.00273223
0.00236907
-0.00024931
0.000520102
-0.0024715
0.0244702
0.00610441
-0.0174844
-0.0130926
0.00154265
0.000175163
-0.00440163
0.00268434
-0.00240754
0.0021681
0.0115217
-0.0376717
-0.00560625
0.0315633
-0.0706714
-0.109986
0.107369
-0.004005
0.0344531
0.0661603
-0.190791
0.047243
0.0773982
0.0161205
0.0418136
-0.0562246
0.0290591
-0.0717713
-0.0241549
0.0668785
-0.0125793
0.0151687
-0.0754484
0.056465
0.0389464
-0.0199435
-0.0057061
0.0201892
0.00606279
-0.0205702
-0.0106538
0.0202283
-0.0157148
0.00529864
-0.00267706
0.0543213
-0.0569562
0.000189361
0.0140369
-0.0296604
0.0154332
0.0389191
-0.0217999
0.0239952
-0.0411479
0.0302573
-0.0123342
0.0543351
-0.0824051
0.0998114
-0.00285732
-0.0145068
-0.00171263
-0.0231634
0.0143476
0.010527
0.00908583
-0.0786892
0.0986648
0.0308111
0.0185075
0.00421594
-0.0535455
0.0174849
-0.00248378
0.00033099
-0.117097
-0.108527
0.00873425
-0.061574
0.0151441
0.0535856
-0.0404616
-0.0233085
0.0254571
-0.0249416
-0.00140804
0.000846764
-0.0335856
0.0328017
0.00898147
-0.00821608
0.00901094
-0.0118847
0.0117821
-0.00888147
-0.00561591
0.0385833
-0.0249386
1.81632e-06
-0.00886131
0.0154869
-0.00661099
0.00484149
-0.00759095
0.00275966
-0.00661882
0.00766193
0.00351185
-0.00981338
-0.00031362
-0.00391129
0.01028
-0.00517339
-0.00525814
0.00845553
0.0141569
-0.00711448
0.0932394
-0.0108839
-0.0170875
0.00178393
0.0417229
-0.077095
0.019944
0.039799
-0.0296054
0.0302375
0.0108369
-0.0256821
0.0371808
-0.00692841
-0.00450185
-0.0269775
0.0381144
-0.0529734
-0.00381845