/*--------------------------------*- C++ -*----------------------------------*\
  =========                 |
  \\      /  F ield         | OpenFOAM: The Open Source CFD Toolbox
   \\    /   O peration     | Website:  https://openfoam.org
    \\  /    A nd           | Version:  11
     \\/     M anipulation  |
\*---------------------------------------------------------------------------*/
FoamFile
{
    format      ascii;
    class       volVectorField;
    location    "40";
    object      U;
}
// * * * * * * * * * * * * * * * * * * * * * * * * * * * * * * * * * * * * * //

dimensions      [0 1 -1 0 0 0 0];

internalField   nonuniform List<vector> 
20983
(
(0.0463834 -0.0113859 0.0131467)
(-0.0582463 0.018225 -0.107311)
(-0.07196 0.0369128 -0.0794728)
(-0.012333 0.0340228 -0.0154069)
(-0.0546734 0.0225811 -0.0983747)
(-0.0227989 0.00183945 -0.0235655)
(-0.0213375 0.0302982 -0.0350265)
(-0.00291885 -0.0171917 -0.0428832)
(-0.00767616 -0.000437033 -0.0351087)
(-0.0206005 0.061191 0.0588287)
(-0.0453045 0.0466768 0.106579)
(-0.021334 0.0279312 0.0683163)
(-0.0182675 -0.0292227 -0.00808443)
(0.0530434 0.0137967 0.0933579)
(-0.0363273 -0.00472246 -0.0419755)
(-0.0309069 0.025689 0.487489)
(-0.0997388 0.166382 -0.0766828)
(-0.0036177 0.0238633 0.00526749)
(-0.0303332 0.0480125 -0.0336871)
(-0.00768491 0.0216586 -0.0113416)
(0.0123877 0.0213515 0.0440325)
(-0.0146255 0.00595465 -0.0259225)
(0.0331987 0.0244443 0.0396251)
(-0.00235222 0.0174866 0.0680578)
(-0.00346392 0.0085798 -0.0217871)
(-0.0458469 -0.00973994 -0.0147471)
(0.00143998 0.0687418 -0.0727264)
(-0.0357143 0.0525826 0.00319471)
(-0.0452283 0.0295851 0.00662106)
(-0.0222197 0.039157 0.00337962)
(-0.00596678 -0.0167944 0.367164)
(-0.0423614 0.0229703 0.00103842)
(0.0879557 -0.00157736 -0.112625)
(-0.0312092 0.0191531 -0.0012218)
(-0.0163779 0.0673059 -0.0849807)
(-0.0177951 -0.00641467 0.00168091)
(-0.0253916 0.00415982 -0.0310648)
(-0.01113 0.0262178 -0.0348688)
(-0.0355668 -0.00101891 -0.0126043)
(-0.0179827 0.00104104 0.0144026)
(-0.0155683 0.031598 0.0164978)
(-0.0323956 -0.0235261 0.0480728)
(-0.021028 -0.00157065 -0.0153238)
(-0.0842405 0.0178863 0.0396297)
(-8.05909e-05 0.0143745 0.00169596)
(-0.0227255 -0.00736651 -0.0194958)
(-0.0161791 0.00584272 -0.0284435)
(-0.0088242 0.0213285 0.0229596)
(0.0703733 0.0273976 0.391294)
(-0.221052 0.0142987 -0.0297492)
(0.0303964 -0.0137214 0.0545191)
(0.00533371 0.00527237 0.0606105)
(-0.033148 0.0298503 -0.0230154)
(-0.0267826 0.035639 -0.251477)
(0.0471597 -0.0128796 -0.0103547)
(-0.0752139 0.0343527 -0.0226131)
(-0.000611043 0.0209901 -0.00194241)
(-0.0390571 -0.000446884 0.0385552)
(0.0178571 0.0055042 -0.00676167)
(-0.00671357 0.0151619 0.0255819)
(-0.0113548 -0.0161602 -0.0487492)
(-0.0159923 -0.00105056 -0.0324382)
(-0.00935549 0.0233629 -0.0183139)
(-0.021987 0.0608855 -0.0539531)
(-0.0593237 0.0541622 -0.0408859)
(0.034804 0.0119674 -0.0294495)
(0.0277929 -0.124168 0.0144085)
(-0.0341128 -0.0254343 0.0201368)
(-0.0113979 -0.0592793 -0.0222876)
(-0.0127084 0.0150366 0.0548607)
(-0.00595071 0.0272794 -0.0355995)
(0.00999978 0.00676708 0.0299953)
(0.0247367 0.0160048 -0.000589177)
(-0.0315236 -0.0218638 -0.0767991)
(-0.0256907 0.0302698 0.0199375)
(0.0855377 -0.182898 0.253389)
(0.0474196 -0.250422 0.234365)
(-0.0169313 0.0289474 0.0493247)
(-0.00703318 0.0104049 0.470019)
(0.0469305 0.0118703 0.0937683)
(0.0461666 0.00250838 0.0659462)
(-0.0394562 -0.0090496 -0.00794884)
(-0.0285424 -0.00192957 -0.0676367)
(-0.720038 0.314583 -0.737849)
(0.00790121 -0.0863561 -0.0509219)
(-0.00349522 0.0203786 0.02337)
(0.0173273 -0.130269 0.00736411)
(0.0389172 -0.0406689 -0.131185)
(0.0205524 -0.103663 -0.225017)
(-0.0033275 0.0209772 0.0277796)
(0.0323486 0.0737071 -0.177903)
(0.430103 -0.118562 0.0349687)
(-0.160986 0.0128193 -0.0650934)
(0.00151715 0.0280604 0.000169772)
(0.10009 0.0269698 -0.135207)
(0.0481445 0.011223 0.0757331)
(-0.0479738 -0.0176592 0.291827)
(-0.0388627 0.00809315 -0.00760284)
(-0.0330663 -0.0165375 -0.0628044)
(0.0313359 0.00507435 0.123888)
(0.0235595 -0.0667902 0.00208552)
(-0.0357544 0.00253529 -0.0106846)
(-0.0388173 0.00915386 -0.0606278)
(-0.0350535 -0.0112798 0.346388)
(-0.0227335 -0.00646334 -0.0122072)
(-0.0329044 0.000320958 -0.0153225)
(-0.0151126 -0.0103575 0.253885)
(0.0533753 0.00979849 0.0892148)
(0.118659 0.0995672 -0.390283)
(-0.00153491 0.0166738 -0.00537305)
(-0.00817598 0.0319146 0.0313972)
(-0.00350855 0.0286931 0.0100952)
(0.013118 -0.00170656 0.0218088)
(0.0452805 -0.290077 -0.095954)
(-0.0820018 -0.156273 -0.0111591)
(0.0510538 0.00759747 0.0980524)
(-0.119061 -0.307826 -0.156958)
(-0.211772 -0.143834 0.218048)
(0.0438994 -0.793381 -0.945575)
(-0.366264 -0.566971 0.0288812)
(0.0247566 -0.0669719 -0.00145846)
(0.0957883 0.0176881 0.0877591)
(0.077589 0.0191523 0.249626)
(0.0659597 -0.0349184 0.0593242)
(-0.0225203 0.0402931 0.0555865)
(-0.00481754 0.0184094 0.0713206)
(-0.0161715 0.0286132 0.0410852)
(-0.0315074 0.0336078 0.0839956)
(-0.0186923 0.0331497 0.0165706)
(-0.0184003 0.036173 0.265708)
(-0.0409527 0.0285678 0.0990935)
(-0.00258527 0.00840858 -0.00669075)
(-0.0140768 0.0429088 0.124398)
(-0.0154 0.000886196 -0.00395342)
(0.00681119 0.0315217 -0.0164815)
(0.0210311 0.0341067 0.0541571)
(-0.0106174 0.0103503 0.00544709)
(0.0429118 -0.0304479 -0.153548)
(-0.0662715 0.004405 0.0996194)
(0.015795 0.0433983 0.190951)
(0.00844059 0.00164281 0.44141)
(-0.0143835 -0.0801853 0.0357759)
(0.0096007 0.0164086 0.00508106)
(-0.0603825 -0.0374248 -0.0408047)
(-0.016589 0.0264499 0.0403946)
(-0.0126946 0.0233031 0.0786761)
(-0.00765019 -0.0160341 -0.046024)
(0.10011 -0.125785 0.342801)
(0.135509 -0.174349 0.258745)
(0.00162128 -0.07166 0.423631)
(0.119201 0.0307152 -0.156727)
(0.0192125 -0.134678 0.0060757)
(0.0318739 0.00814358 0.105164)
(-0.00127489 0.010403 0.0172528)
(-0.0640051 -0.0286457 0.0652609)
(-0.068615 0.0179787 0.0815867)
(-0.0484964 -0.01962 0.0126556)
(-0.00194872 0.0134682 0.0105324)
(-0.0190214 -0.0104255 -0.029565)
(-0.00831976 0.017868 -0.00112879)
(0.0119681 -0.026356 0.0304018)
(-0.0274737 0.0172863 -0.00373808)
(-0.00627954 0.00945193 0.0247557)
(-0.0180703 0.00105217 0.0344513)
(0.0728723 0.106463 -0.255783)
(-0.0106019 -0.000192096 0.0281138)
(-0.0399532 -0.0138163 0.0457363)
(-0.0313691 -0.00920711 -0.00539212)
(-0.0393719 -0.0172385 0.0449617)
(-0.0438447 0.0026051 0.0369189)
(-0.0327459 0.0177106 -0.00838468)
(-1.16779 -1.09336 -0.944042)
(-0.150983 -0.465552 0.0663528)
(0.228798 -0.138537 0.140077)
(-0.0193634 -0.00189206 -0.0186535)
(-0.00287748 0.0152821 0.0597784)
(-0.264911 -0.145806 -0.271704)
(-0.0508988 -0.0289681 0.0667663)
(-0.93937 -1.59856 -1.05342)
(-0.049325 0.000402381 0.107717)
(0.0119563 0.00567726 0.0646741)
(0.102233 0.00198721 -0.131436)
(-0.00874301 0.0183533 0.0122514)
(-0.00175564 0.0291503 -0.00987752)
(-0.0139086 0.0229033 0.0582723)
(-0.163976 -0.050137 -0.0749962)
(-0.0176116 0.0349562 0.00338063)
(-0.0139613 0.0294352 0.0443634)
(-0.0463239 -0.0199295 -0.140315)
(-0.0269605 0.000653781 -0.0680234)
(-0.0771827 0.00702062 0.0921948)
(0.0423133 0.0129508 0.0735637)
(-0.0185727 0.0212429 -0.0239503)
(0.0200289 0.0589448 -0.093017)
(0.0693101 -0.0372705 -0.0377712)
(-0.00118719 0.0115548 0.0155192)
(0.0223645 0.0252814 0.363326)
(-0.00583697 0.0155644 -0.0158996)
(0.0184437 0.0317335 0.349207)
(0.0411468 0.0291682 0.115088)
(0.0309956 -0.0020353 -0.00385247)
(0.024615 -7.99307e-05 0.37585)
(-0.0369905 0.0219715 0.12022)
(0.0272836 0.0731787 0.0645286)
(0.0195025 0.0275935 0.173144)
(-0.00484195 0.0732535 -0.0248716)
(-0.00547775 -0.00858966 0.042687)
(0.00293967 0.0160596 -0.0224728)
(0.439721 0.0835023 -0.450631)
(-0.0691303 -0.00507187 0.074569)
(-0.0201623 -0.021527 -0.0154407)
(-0.0487822 -0.0476564 -0.0207825)
(0.0410396 -0.000590631 0.342559)
(0.024486 0.00457679 -0.0207349)
(0.0323584 0.0200477 0.080726)
(-0.0224249 -0.000228325 0.0596787)
(0.0441794 0.0727056 -0.0219491)
(-0.0090035 0.0153911 0.0163848)
(0.0137732 0.0333696 0.0593035)
(0.00758477 0.0416981 0.0344403)
(-0.0183854 0.0447979 0.111348)
(-0.0132137 0.0373136 0.0336006)
(-0.00606242 0.0259106 -0.0367969)
(-0.0215164 -0.000182033 0.274691)
(-0.0505082 -0.000157392 0.204293)
(-0.0151172 -0.0211948 0.27609)
(-0.0542368 -0.0117241 0.0702284)
(-0.0710047 0.0106705 0.168519)
(0.0262789 0.0541227 -0.0370937)
(0.0165148 0.00716545 0.0422231)
(-0.013759 0.0180163 0.0573568)
(-0.0571198 -0.0121294 -0.00237556)
(-0.00637477 0.0260499 0.00496171)
(-0.0436258 0.0336163 0.137362)
(0.50864 0.640366 -0.509497)
(-0.00716781 0.0354088 0.00550573)
(0.406599 0.197185 -0.00125675)
(0.0294579 0.0385917 0.144217)
(-0.0375165 0.0550839 0.0560379)
(-0.00742825 -0.0431207 0.0138253)
(0.000709205 0.0835565 0.0141652)
(-0.0350709 0.0409417 -0.0862253)
(-0.0179428 0.0265793 0.0170807)
(-0.00532176 0.0143598 0.00462743)
(0.014482 0.000257001 0.0983974)
(-0.0235014 0.0223149 0.0344908)
(-0.0149151 -0.00705695 -0.0275917)
(0.0519916 0.004739 0.0865279)
(-0.0981793 -0.035335 0.367389)
(-0.0997372 -0.0624677 0.139221)
(-0.0457755 -0.0328045 0.470203)
(-0.122489 -0.0652261 -0.119945)
(-0.167888 -0.0654772 -0.210501)
(-0.00164673 0.00997778 0.0154478)
(0.00297862 0.0521898 0.00685941)
(-0.0156709 0.0405453 0.249473)
(0.0234945 -0.0632121 -0.0643741)
(-0.0370484 -0.00672073 0.0475659)
(0.0150963 0.0167308 -0.0386112)
(0.0352128 0.00485628 0.119762)
(-0.0246259 0.0218847 -0.110043)
(-0.0294625 0.0263567 0.0359745)
(-0.00754221 -0.0602647 -0.0617009)
(0.0149601 -0.00239437 0.0274782)
(-0.0152586 0.0278721 0.0262926)
(-0.0635319 0.00525903 -0.0169449)
(-0.00626917 -0.0233412 0.00255329)
(-0.0372106 -0.0137807 -0.0103805)
(-0.00613816 0.0343803 0.0223862)
(-0.0184724 0.0104828 0.0539022)
(0.0122014 -0.0271335 0.019136)
(0.0738999 0.0980494 -0.101063)
(-0.0189935 -0.0194182 -0.0124719)
(-0.0295377 0.0413671 0.0955224)
(-0.0162627 0.0239174 -0.0628115)
(0.00462061 0.0192563 -0.00932567)
(-0.0192595 -0.0209869 0.02618)
(0.0466899 -0.0565397 0.00233508)
(-0.0118485 0.0286912 0.0659439)
(-0.0679277 -0.00366742 -0.0881009)
(0.0239655 0.0590007 -0.0141587)
(0.0585727 0.015594 0.145217)
(-0.0318978 -0.0396104 -0.0330232)
(-0.602286 0.14047 -0.418555)
(-0.0329925 0.0447831 -0.0435838)
(0.00409881 -0.0288015 -0.0125622)
(-0.0409489 -0.033838 -0.0526857)
(-0.0184516 -0.0141157 -0.016432)
(-0.0578953 -0.0418869 -0.0456375)
(-0.00481061 0.0157687 0.00361571)
(0.00113592 0.0590038 -0.109802)
(-0.0444936 0.00722998 -0.0767401)
(-0.00863878 0.0416642 -0.0366447)
(-0.0303512 0.032481 -0.0803227)
(-0.0319113 0.00330771 -0.0060167)
(-0.0204777 0.0261052 -0.0180635)
(-0.00899368 0.0104677 0.129201)
(-0.0187803 -0.0136519 0.116571)
(0.0368854 0.0192894 0.0711401)
(-0.0160427 -0.00899031 0.149914)
(0.0403653 0.0158151 0.00102968)
(0.0315074 0.0281791 0.056414)
(-0.0141422 0.00283982 0.048348)
(0.0613665 0.0107628 0.048318)
(0.0611661 0.0306624 -0.0819247)
(0.0112251 -0.0125082 0.127451)
(0.0352215 0.00985416 0.0701742)
(0.0323522 0.0226021 0.0720325)
(-0.000830883 0.0641498 0.223201)
(-0.0112072 0.0505803 0.258766)
(0.0561328 0.0263917 -0.0819898)
(-0.0241342 0.0113451 0.129924)
(-0.032724 0.0759488 0.18906)
(-0.00984093 -0.0225486 0.292815)
(0.0291023 -0.00711637 0.0243389)
(-0.000790662 0.03574 -0.00144379)
(0.0175748 0.00511467 0.471449)
(-0.0205954 0.0012608 -0.00431042)
(-0.0316347 0.0663879 -0.00746889)
(-0.00367072 0.0142015 0.0114432)
(-0.0225385 0.00347737 -0.0175098)
(-0.0630055 -0.143163 -0.292765)
(0.02886 0.0305351 -0.229467)
(0.00555864 0.0175743 -0.00432312)
(0.000887701 -0.0338732 0.01798)
(0.00449816 0.027056 0.0727069)
(0.00604698 0.0693621 -0.0493742)
(-0.0109961 -0.00195047 -0.0335183)
(-0.00971625 0.0321487 -0.0104169)
(-0.000930367 -0.0076863 0.449083)
(-0.017951 -0.00796418 0.392724)
(-0.0136339 0.0129349 -0.0592791)
(-0.0261202 0.0286673 0.0383563)
(-0.0177528 0.0164551 0.0453961)
(-0.0308397 0.0767427 -0.103422)
(0.00491416 0.023313 -0.00943493)
(0.744467 0.219408 -0.700508)
(-0.0470183 -0.0313704 0.0661252)
(-0.00815165 -0.0614097 0.0876345)
(-0.193896 -0.397502 -0.234653)
(-0.0266076 -0.0119703 0.0351698)
(-0.0331128 0.0320102 0.127929)
(0.0723256 -0.161054 0.442052)
(0.00451943 -0.139813 0.155813)
(0.0156433 -0.0262057 0.430011)
(-0.0373517 -0.0126055 0.4638)
(0.0360841 -0.0829095 0.0375487)
(-0.0215249 -0.00457877 0.0477815)
(-0.0199693 0.0113115 0.0791552)
(0.0315934 0.0118442 0.0392746)
(0.0200314 -0.00495389 0.0464063)
(0.0113236 -0.00580104 0.0143303)
(-0.0175783 0.0132388 0.138053)
(-0.0217559 -0.046684 -0.0412181)
(0.0478712 0.0268548 0.0136359)
(-0.0122289 0.000655428 -0.0529596)
(0.00787643 -0.0296279 0.0101197)
(0.00535022 -0.00177955 0.0310594)
(-0.0328367 0.0127373 0.00812456)
(-0.0695272 0.0247852 0.000974037)
(-0.0240653 0.0423001 -0.00925771)
(-0.213051 0.0305405 -0.453391)
(-0.00405353 0.014035 0.0426354)
(0.00571046 0.0243964 -0.00288377)
(-0.0651608 0.0179737 0.103954)
(-0.0012213 0.024652 -0.04333)
(-0.026157 0.0262679 0.101897)
(0.00795748 0.00347165 0.0332145)
(-0.0304984 -0.03067 -0.039333)
(0.00694239 -0.0294876 0.0290219)
(-0.032954 0.00402184 0.0553646)
(-0.0108089 -0.00417116 0.225478)
(-0.0301092 0.0488979 0.123353)
(0.00704101 0.0035523 0.0716028)
(-0.0370915 0.0454745 0.0812191)
(-0.0122504 0.0499874 0.147952)
(-0.0103154 -0.000759264 -0.0305817)
(0.199683 0.00340541 0.0329042)
(0.20367 -0.202928 0.105077)
(1.22628 -0.602405 -0.211975)
(0.787671 -0.118239 -0.00141044)
(0.0270163 0.00746785 0.0345776)
(0.256911 -0.0143459 0.0643684)
(0.224262 -0.205162 0.0403708)
(0.0788711 -0.261202 0.210613)
(0.031276 0.0202702 0.0328699)
(-0.0164959 0.0144367 -0.0265618)
(0.0661134 0.127408 0.308365)
(0.0720019 -0.262571 -0.302744)
(0.141812 -0.232842 -0.0122399)
(0.193812 -0.34083 0.0081944)
(0.088201 -0.333771 0.207407)
(-0.0188531 0.0588191 -0.0724874)
(-0.00692295 -0.014381 0.00744715)
(-0.0202967 0.00414318 0.162899)
(-0.00455928 0.0370697 0.0414304)
(0.000128808 0.00191187 0.0664309)
(-0.00528731 0.0210104 -0.00936589)
(-1.79245e-05 0.0457986 0.0290457)
(0.0324134 0.00153941 0.131651)
(-0.00262294 0.0150182 0.0258938)
(0.00214684 0.0303099 0.0841611)
(-0.0858423 -0.0949284 -0.162269)
(0.000334901 0.00259966 -0.0281266)
(0.145515 0.0570841 -0.0734578)
(-0.105896 -0.00903524 0.0956091)
(0.0201438 -0.0782426 -0.0917757)
(0.0493331 0.194269 -0.316279)
(-0.0139414 0.0349718 0.0726535)
(0.00478827 0.00724693 0.0152305)
(-0.0120148 0.0254819 0.0179857)
(-0.0394075 0.0581937 0.0127042)
(-0.0688076 0.0273329 -0.00137556)
(-0.122764 0.0536402 -0.0212209)
(-0.0772277 0.0753169 -0.138645)
(0.00247615 0.0332547 -0.0105971)
(0.126568 0.0630481 -0.0517081)
(-0.00661822 0.16177 0.0534788)
(-0.0186437 -0.0260537 -0.0181767)
(-0.0870127 -0.0284714 -0.125057)
(-0.120424 0.0394576 -0.0779784)
(-0.0206078 0.0375795 -0.0393817)
(0.00989311 -0.0001463 0.0231609)
(-0.0185542 0.00952578 0.0408608)
(-0.018832 0.0288322 0.241502)
(0.0256544 -0.000424594 0.0037251)
(0.0458015 -0.0884544 0.0316883)
(0.0283017 -0.0831021 0.0245008)
(-0.017595 -0.0234136 0.135961)
(-0.0189973 0.0143888 -0.00202699)
(-0.0128864 0.0224562 0.0464224)
(-0.0181562 0.0340119 0.0930373)
(-0.0447794 0.0414314 -0.0396458)
(0.0066868 0.0116669 0.399686)
(-0.00539237 0.0447819 0.382405)
(-0.027533 0.0401249 0.345768)
(-0.0534068 0.0715927 0.278593)
(-0.126415 0.0179158 0.243717)
(-0.00465801 -0.0293756 0.0643068)
(-0.24626 0.0659778 -0.137307)
(0.024403 0.0222025 0.0695581)
(0.0332575 0.0183438 0.0826182)
(-0.0668756 -0.019745 0.075735)
(0.0702282 0.0279282 -0.107234)
(-0.00381105 -0.000197059 -0.0378146)
(-0.0094752 0.0263231 0.040256)
(-0.00261961 0.00267447 0.039354)
(-0.021395 0.0306609 0.0587218)
(-0.19005 -0.0533098 -0.314559)
(-0.0146618 0.0145686 0.0329887)
(0.0448045 -0.00163535 -0.140118)
(0.103113 0.02915 -0.183036)
(0.00911202 0.0395004 -0.00152657)
(-0.0504444 -0.0202023 -0.0244616)
(-0.00409485 0.0234489 0.0678985)
(0.00529919 -0.0264643 -0.0124065)
(-0.0308657 -0.00114263 0.257276)
(0.0180565 0.0254397 0.00348523)
(-0.0132961 0.0300122 0.036545)
(-0.000565523 0.0636181 0.0190072)
(0.192874 -0.141297 -0.298665)
(0.231729 -0.099132 -0.438642)
(0.10016 -0.0287844 -0.128565)
(-0.0143391 -0.0132178 -0.00459161)
(0.125273 -0.0257198 -0.0948309)
(0.175964 -0.189135 -0.537325)
(0.133848 -0.0137119 -0.106521)
(-0.206375 0.115695 0.021867)
(-0.00423322 0.00294702 0.0240564)
(-0.0856434 -0.01418 0.0526323)
(-0.404195 -0.0688889 -0.457151)
(-0.0263317 0.195007 -0.0201507)
(-0.0186153 0.0311684 0.0179374)
(-0.0785471 -0.0319912 -0.0281674)
(-0.0188329 0.022099 0.042657)
(-0.0167097 -0.00495657 -0.0467559)
(0.0643269 -0.00956593 -0.0423468)
(0.0074402 0.0117021 -0.00318981)
(0.0433283 -0.0417835 -0.00157475)
(-0.0521856 0.00608672 -0.0254033)
(-0.026369 0.0465839 -0.0460877)
(-0.0170984 -0.00386732 -0.0177677)
(1.65781 0.603789 0.0345521)
(0.0505497 0.170391 0.0451454)
(0.661667 0.346119 0.0378382)
(-0.0918863 0.0433301 0.0743312)
(-0.00987731 0.0648095 0.0365201)
(0.0225453 0.158989 0.170415)
(0.00768455 0.00513191 -0.00899155)
(0.0135572 0.00462336 0.115081)
(0.0232181 -0.0208456 0.143952)
(-0.0403144 0.0151214 0.0870219)
(0.0291795 -0.00137098 0.225721)
(-0.0372176 -0.0161142 -0.00877761)
(-0.00367073 -0.0118241 0.0417004)
(-0.0350915 -0.00541487 0.0364902)
(0.0045339 0.0191091 0.0181291)
(9.7542e-05 0.00946042 0.504064)
(0.0286072 0.00114994 0.329112)
(-0.00285367 0.0494133 -0.104459)
(-0.0184773 -0.00585823 0.138174)
(-0.0161422 0.0118386 0.165145)
(-0.0175187 -0.00346512 0.206034)
(-0.021498 -0.0343623 -0.0510783)
(0.00303423 0.0408674 -0.0011115)
(-0.0310458 -0.0119582 0.427476)
(1.63024 -0.303151 0.322405)
(-0.00838421 0.00614755 -0.0395161)
(-0.0750439 -0.031943 0.0848286)
(0.00492378 0.0118134 0.505014)
(0.0382223 -0.0648041 -0.0555289)
(0.0451571 -0.076916 -0.0595542)
(0.0075034 0.0267065 0.512714)
(0.043604 -0.0888973 -0.0508978)
(-0.0332864 0.00609958 -0.0370029)
(-0.035046 0.0166807 0.303444)
(-0.00287225 0.00010988 0.0159582)
(0.00439906 -0.0611928 0.000514585)
(-0.0445196 -0.00957986 0.278193)
(-0.0177573 -0.000273798 -0.010436)
(0.016037 -0.00189029 0.0320853)
(-0.021017 0.0300723 0.0561871)
(-0.0232214 0.0140802 0.0727548)
(-0.0541627 0.0123783 0.219233)
(-0.0480486 0.000318124 0.287419)
(-0.0332758 0.0111703 0.00959068)
(-0.0736037 0.0256156 0.166051)
(0.0335988 -0.0256296 0.144061)
(0.0264217 -0.0164486 0.295843)
(0.0196702 0.00492057 0.352009)
(-0.0135324 0.0170043 0.149016)
(0.286791 -0.429046 -0.543023)
(-0.00777467 -0.0128759 0.481001)
(0.0145889 -0.00854147 0.0151673)
(5.22426e-06 -0.0122186 0.436)
(-0.0131104 0.010443 -0.057693)
(-0.364436 0.0573914 -0.296099)
(-0.146497 0.0279506 -0.124332)
(-0.0814382 -0.0350401 -0.119913)
(-0.0204355 -0.0107742 -0.0266671)
(-0.0240945 -0.0127689 -0.0286805)
(-0.149204 0.239316 -0.0637378)
(-0.0949624 0.000341312 -0.0453906)
(-0.000515779 -0.0119305 0.026528)
(-0.0352054 -0.0200655 -0.0157436)
(-0.00905191 -0.0762691 -0.0404903)
(-0.0182916 -0.0205899 -0.0113736)
(-0.0400038 -0.00121702 0.0511639)
(-0.0360336 0.0100837 0.0019667)
(-0.0280364 0.0385552 0.0871698)
(-0.000286715 -0.0531582 0.0243064)
(-0.00209392 0.016934 0.0268804)
(0.0104932 -0.0228377 0.00066315)
(-0.00734295 -0.0653039 -0.0123636)
(0.0650266 -0.0666924 -0.206379)
(-0.0475634 0.00162608 0.301212)
(-0.0113731 0.00171772 0.129609)
(-0.0361391 0.000780349 0.293176)
(0.0233182 0.010451 0.135802)
(-0.00543975 -0.0582774 -0.0637347)
(0.0117379 -0.00586644 0.0651328)
(0.00261449 -0.0403627 0.00470115)
(-0.0169321 -0.000597912 0.0379094)
(-0.00999658 0.0266227 -0.0162958)
(-0.0297418 0.03642 0.0992179)
(-0.0536934 0.0456372 0.00622944)
(0.017988 -0.0042432 0.0428881)
(0.0143914 -0.0169249 -0.0010919)
(0.582821 -0.403025 -0.264918)
(0.12492 -0.174971 -0.0208108)
(0.10181 -0.270335 0.105813)
(0.1579 -0.206965 -0.011369)
(-0.0967691 0.0591156 0.18554)
(0.0293738 -0.0799472 0.254265)
(0.000616922 0.0247049 0.0260787)
(0.0731029 0.0450209 -0.024514)
(0.109306 -0.00419415 0.0109208)
(0.0424667 0.0141048 0.202287)
(-0.0311906 -0.00772214 0.0293082)
(0.00162315 0.0426064 -0.0293341)
(-0.0257471 0.0277467 -0.00341445)
(0.0216577 0.0115791 -0.0453511)
(0.00467196 0.00951638 0.092578)
(-0.853266 -0.164108 -0.683241)
(-0.00531859 0.013103 -0.0172717)
(-0.379814 -0.163267 0.309752)
(-0.161302 0.0133649 0.361357)
(-0.0239348 0.0020895 -0.0212212)
(-0.014568 0.0176094 0.0597443)
(-0.0296845 -0.00990083 0.0727605)
(0.0124915 0.00348645 0.0649959)
(-0.0200915 0.0178149 0.0487922)
(0.0101491 -0.0816118 0.00808341)
(0.0205953 -0.0716972 0.0303106)
(-0.020975 0.0321834 0.0240537)
(0.0239249 -0.0173974 0.0464678)
(0.021079 -0.0782696 0.0141595)
(0.0268152 -0.0701998 0.0271542)
(-0.0320649 0.0398195 -0.0655793)
(-0.0177868 0.0382161 0.0767782)
(-0.0144289 0.0321794 0.0571126)
(-0.00890756 0.02007 0.00455044)
(0.012283 -0.0690041 0.00517588)
(-0.00953968 0.0274866 0.0808514)
(0.0135526 0.0501802 -0.0560843)
(0.00972848 -0.0176336 0.0222972)
(-0.0424017 0.0293344 0.0792616)
(-0.0494756 -0.010204 -0.0210075)
(0.00403891 0.0411978 0.0101302)
(-0.0950457 0.0157407 -0.0546824)
(-0.0504428 0.0486809 0.187392)
(-0.0199044 -0.00928805 0.315392)
(-0.0465884 0.0245817 0.310628)
(-0.014345 -0.013956 0.0250084)
(-0.0102683 0.00703066 0.412019)
(-0.028406 0.0754629 0.420287)
(-0.0127301 0.0253341 -0.0265598)
(0.00118073 -0.0149914 -0.0146878)
(-0.0192092 0.0478745 -0.0118115)
(-0.037644 -0.0136131 -0.031264)
(-0.0396914 0.0458637 0.0770699)
(0.00989349 -0.0337412 -0.112664)
(-0.100694 0.136984 0.0706295)
(0.147581 0.0484137 -0.227625)
(0.0183245 0.0102512 0.390719)
(0.0719236 -0.128863 0.315905)
(-7.20423e-05 0.0312491 0.02846)
(0.0894097 -0.0760577 0.383712)
(0.159918 -0.101991 0.181876)
(-0.0372264 -0.0178272 -0.0116134)
(0.0320219 0.00500629 -0.0272103)
(0.00339812 -0.00146504 0.019194)
(-0.0277983 0.0242334 -0.0429091)
(-0.130295 0.111212 -0.338054)
(0.0095751 0.00740633 0.0363813)
(-0.0569094 -0.0504393 -0.0530243)
(-0.023423 -0.0385787 -0.0420419)
(0.0193436 0.0693235 -0.0280007)
(-0.0502487 -0.00613067 -0.0282742)
(0.0101975 -0.025143 -0.0564941)
(-0.00757214 0.0230658 -0.0434882)
(-0.0518034 0.0128704 0.0390332)
(-0.0929553 0.104554 -0.282939)
(-0.133026 -0.0394717 0.0992594)
(0.0224921 0.00481701 0.0567231)
(0.0146384 0.0265645 0.0558394)
(-0.0232568 -0.00939362 0.0322916)
(0.00433814 0.0251116 0.0364449)
(-0.0038717 -0.0302838 -0.0328161)
(-0.00479454 0.0333206 0.0133638)
(-0.0696461 0.0365223 0.0122945)
(-0.00858164 0.0254573 -0.037952)
(-0.033999 -0.0873501 -0.0230776)
(-0.155801 -0.183127 -0.0734662)
(-0.297498 -0.320915 -0.14057)
(-0.0387314 0.226501 0.201546)
(-0.00280049 0.0319834 0.0158805)
(-0.0151148 -0.00474382 -0.0404711)
(0.0230593 -0.0888511 -0.102704)
(-0.0616633 0.00882486 0.036502)
(-0.0209895 0.0532537 -0.0107062)
(-0.0152551 -0.0145017 -0.0108197)
(-0.0186926 -0.0145566 0.0263525)
(-3.91311e-05 -0.0365116 -0.0695447)
(0.018655 -0.126059 0.0190854)
(-0.031866 -0.0165064 -0.0265706)
(-0.236749 -0.0212272 -0.603942)
(-0.018795 -0.0343696 -0.0340952)
(-0.0238278 -0.0194241 -0.0303656)
(-0.030054 -0.0206613 -0.033837)
(-0.0312806 -0.025073 -0.0274071)
(-0.0243429 -0.0125138 -0.0279952)
(-0.0161731 -0.0329398 -0.0450711)
(-0.0194092 -0.0389287 -0.0352552)
(-0.0066718 0.0305905 -0.0244138)
(0.0634073 0.00864624 -0.00845767)
(-0.0364837 -0.00926621 0.00117996)
(-0.028015 -0.00177665 -0.00969713)
(-0.00876375 -0.0319432 -0.058781)
(-0.027504 -0.00229651 -0.00976544)
(-0.0286984 0.0041892 -0.00610176)
(-0.0202642 -0.0011075 -0.00266246)
(-0.0272019 -0.00822189 -0.0104228)
(-0.0369297 -0.00213458 -0.0420229)
(-0.079503 -0.00609801 0.0228718)
(-0.0254639 -0.0286793 -0.0271823)
(-0.0347436 0.00748057 0.128602)
(-0.040413 0.00508612 0.136243)
(-0.0516161 0.0176594 0.172457)
(-0.0268595 -0.000899472 0.0838612)
(-0.0233169 0.00981537 -0.0121851)
(0.0321656 0.00644958 0.058597)
(-0.0522316 0.00268142 0.0363827)
(0.0236208 0.000384413 0.108711)
(0.00567965 -0.0161486 -0.021579)
(-0.000635337 0.0154379 0.00939757)
(0.00245865 -0.00422793 -0.0152345)
(-0.0921698 0.0893971 -0.353711)
(0.0126015 0.00949859 0.00821037)
(-0.0138636 0.0124225 0.0554505)
(0.0237186 0.00104132 0.0324742)
(-0.0227435 -0.00532683 -0.0274815)
(-0.0460692 0.00875645 -0.0100519)
(0.0278613 -0.0300666 -0.0181624)
(-0.0221702 -0.00447081 0.0427635)
(-0.0103705 0.0314805 0.0352356)
(-0.273164 -0.530027 -0.0506642)
(-0.0289494 0.0382826 0.0955824)
(0.216004 0.279221 -0.344378)
(-0.0671601 -0.027977 0.0690999)
(-0.0240134 0.0209492 0.0267333)
(0.0185566 -0.0237578 0.0305103)
(-0.0191988 0.00966142 0.0535752)
(0.0331334 -0.0203778 0.323276)
(-0.0253483 -0.00518477 -0.0254031)
(-0.0324982 0.0225629 0.0754966)
(-0.034115 -0.0322677 0.309018)
(-0.0192757 0.0254614 0.0315219)
(-0.0364268 0.0217092 -0.10798)
(-0.055445 0.0121521 -0.0196909)
(0.0966015 -0.0100712 0.0907669)
(0.0860502 -0.0118965 0.0842679)
(-0.0438007 0.0320291 0.0949377)
(-0.0399448 -0.0288576 0.000598572)
(-0.0308238 0.0282783 -0.0572783)
(-0.0386151 -0.0456926 0.0177289)
(-0.0172365 0.00452462 0.0494103)
(-0.00481555 0.0283127 -0.0407591)
(-0.00177846 0.0121913 0.0198726)
(0.0118047 0.0353988 -0.0455613)
(-0.0225026 -0.0214693 0.0780599)
(-0.00746181 0.0516789 -0.0940282)
(-0.0161938 0.0294059 0.0453565)
(0.0333058 0.0244062 0.0405508)
(0.0149412 0.0813044 -0.0264303)
(-0.0445841 0.04448 0.0843048)
(0.0398481 0.19908 -0.292702)
(-0.0241556 -0.00173085 -0.024103)
(-0.0163531 -0.0517197 0.102912)
(0.00946031 0.0732695 -0.0685358)
(-0.00775098 -0.00237103 -0.0332548)
(-0.0174142 0.0067176 0.0205541)
(-0.0439484 -0.000597923 0.185822)
(-0.0154615 -0.00803855 -0.00758226)
(0.0302601 0.0225561 0.0553013)
(-0.0231491 -0.00722233 0.500043)
(-0.0436689 -0.00751563 0.0562599)
(-0.105862 0.0565098 0.237831)
(-0.0656277 0.0407746 0.39247)
(0.0614636 -0.0505087 -0.110032)
(-0.0396776 0.00718374 -0.000712564)
(-0.0142346 0.0244594 0.0306776)
(-0.0123308 0.0363219 -0.00973127)
(0.0478174 0.0234026 0.0769099)
(-0.0103731 -0.0191266 -0.0425441)
(-0.0732958 -0.0512524 0.0139223)
(-0.064277 0.0199263 0.381342)
(-0.0248621 0.0338461 0.0894351)
(-0.0730105 0.000884794 0.0353323)
(0.00186151 0.0230673 -0.0224987)
(0.0222143 0.0840185 -0.00914949)
(-0.0257544 0.0250961 0.0848953)
(-0.0259823 -0.0345282 -0.0369926)
(-0.0525428 -0.0118017 0.0718091)
(0.0448624 0.0139369 -0.0425096)
(-0.0185578 0.0369739 0.0605628)
(-0.0285218 0.0935073 0.157307)
(-0.0353712 0.0127048 0.437171)
(-0.0361137 -0.0862686 -0.0987216)
(0.0273932 0.0576992 0.45457)
(-0.00450732 -0.0233254 0.493683)
(0.0171234 -0.0432028 0.479535)
(-0.0107367 -0.0273436 0.48914)
(0.0585827 -0.0615907 0.33658)
(-0.0396571 -0.0214685 0.35903)
(0.00305952 -0.00848231 0.0264185)
(1.57555 -0.366944 -0.854908)
(0.923612 -0.119999 -0.196401)
(0.00364674 0.000322294 0.00700672)
(0.00655776 0.0277703 -0.0312027)
(0.0998486 0.117317 0.342816)
(0.0169566 0.00386136 0.00929446)
(-0.00012842 0.0235987 0.0610955)
(-0.161889 -0.0845213 -0.303921)
(-0.0129277 0.0313363 0.0207527)
(0.0188919 0.00606112 0.135039)
(-0.0250066 0.0307974 0.0522355)
(-0.0764517 0.0348267 0.141521)
(-0.00637744 0.0309011 0.0217737)
(0.0212799 0.0210093 0.0674689)
(0.0097435 -0.0167642 -0.039518)
(-0.0332912 -0.00544759 -0.0130704)
(-0.0379326 -0.0192172 -0.0241479)
(-0.0312188 0.0187262 -0.0334182)
(-0.0629338 -0.0187679 0.033219)
(-0.067068 0.0252992 -0.00924351)
(0.00454112 0.00560072 0.0835722)
(0.0100509 -0.0161664 -0.00997633)
(-0.0756425 0.0346556 0.147625)
(-0.0192067 -0.0176519 -0.0379589)
(-0.0259933 0.00352608 -0.0139856)
(0.175581 0.140025 -0.307484)
(-0.026307 -0.0296458 0.0192383)
(-0.00260139 -0.0209582 -0.0653961)
(-0.00372247 0.0272131 0.00255972)
(-0.0239571 0.00289212 0.0150158)
(-0.0124211 0.0205815 0.0361349)
(-0.0386053 0.0221051 -0.017682)
(-0.0940368 -0.149309 -0.210581)
(-0.00927374 0.0732754 -0.208684)
(-0.0647808 0.0440418 -0.196934)
(-0.154043 0.0606242 -0.235256)
(-0.0970318 -0.119307 -0.214381)
(-0.132559 -0.210088 -0.214122)
(-0.110993 -0.152731 -0.208878)
(0.00661096 0.00916181 0.272805)
(-0.0189058 0.0286061 0.0516341)
(-0.0263085 -0.00520037 0.0656904)
(0.0200762 0.0728675 -0.0958524)
(-0.0116372 0.0204235 -0.0606673)
(-0.0612217 0.145541 -0.477985)
(0.0659417 0.0174361 -0.168505)
(0.0169002 0.0737393 -0.332645)
(0.0055629 -0.0161697 0.062371)
(-0.014395 0.0337156 0.0284167)
(-0.036281 0.190896 -0.397794)
(0.126321 -0.0796395 0.0262833)
(0.0969063 -0.14738 -0.112409)
(-0.165265 -0.227312 -0.357558)
(-0.00690979 0.0286436 0.3795)
(0.0597923 -0.283878 -0.124968)
(-0.0260736 -0.00828044 -0.0129844)
(-0.0556105 -0.0159825 0.0729036)
(0.0100037 0.0247274 -0.0155753)
(-0.00800519 -0.00971831 -0.0237904)
(-0.00293528 0.0161148 0.0129519)
(-0.0305022 -0.0216386 -0.0567902)
(-0.0300157 0.0217627 -0.023687)
(0.00554502 0.00753024 0.088259)
(-0.0187449 0.0335073 0.0941002)
(0.015149 0.00588608 -0.00589957)
(-0.0148644 0.028939 0.0515064)
(-0.0221682 0.00972499 -0.0307593)
(-0.0101259 -0.0244104 0.446169)
(0.0160541 0.0269431 0.477215)
(-0.0322571 0.0264426 0.00850863)
(-0.0409312 -0.0935653 0.159296)
(0.0485578 -0.0235915 0.26517)
(-0.0627312 -0.0424341 -0.0444021)
(-0.000186335 -0.00450032 -0.0215927)
(-0.0554736 -0.0137841 0.00451882)
(-0.0332091 0.0600338 -0.00477652)
(-0.00407136 0.0170144 0.00433245)
(0.00430009 -0.0255442 -0.00348962)
(0.0268649 -0.0069792 0.0962946)
(0.0492947 -0.0218192 -0.0203884)
(0.0889971 0.0202823 -0.0290499)
(0.00835165 0.0054989 0.0343736)
(-0.0179288 0.0287932 0.0672525)
(0.000908396 -0.00174434 0.06261)
(-0.0332858 0.00430719 0.03452)
(0.0291929 0.10276 -0.0405928)
(-0.00196309 0.000418071 0.0151622)
(0.136154 0.0568996 -0.12343)
(-0.0419638 0.0398483 0.0184073)
(-0.0208793 -0.0334748 -0.0513531)
(0.167278 0.109983 -0.116853)
(-0.0293406 0.0219796 -0.0114944)
(-0.083737 -0.0310084 -0.087945)
(0.167078 0.0638802 -0.0897502)
(0.234004 0.0492664 0.0147478)
(0.132198 0.0541663 -0.0538326)
(0.150002 0.0677349 0.016589)
(-0.00827146 -0.00254933 0.00952481)
(-0.034848 -0.0088769 -0.0120377)
(-0.0209943 0.0230092 0.0311962)
(-0.0476102 0.0118497 0.0550002)
(-0.0184213 -0.00738582 -0.0240593)
(-0.025217 -7.94557e-05 0.0408489)
(-0.164515 -0.165402 -0.129893)