/*--------------------------------*- C++ -*----------------------------------*\
  =========                 |
  \\      /  F ield         | OpenFOAM: The Open Source CFD Toolbox
   \\    /   O peration     | Website:  https://openfoam.org
    \\  /    A nd           | Version:  11
     \\/     M anipulation  |
\*---------------------------------------------------------------------------*/
FoamFile
{
    format      ascii;
    class       volVectorField;
    location    "100";
    object      U;
}
// * * * * * * * * * * * * * * * * * * * * * * * * * * * * * * * * * * * * * //

dimensions      [0 1 -1 0 0 0 0];

internalField   nonuniform List<vector> 
20983
(
(-0.103882 0.0569191 -0.0453318)
(0.296399 0.188213 0.231353)
(0.216215 0.0690742 0.177134)
(0.0103463 0.0110164 -0.0395509)
(0.367848 0.258785 0.300463)
(0.0410728 0.267878 -0.166441)
(0.03704 -0.0307766 -0.0421038)
(-0.0119784 -0.0326882 -0.0227006)
(-0.0102381 0.0171539 0.00717683)
(-0.0244616 0.0600001 0.0506457)
(-0.0514734 0.0490262 0.0827893)
(-0.0245524 0.0212219 0.0241507)
(-0.0897579 0.0342156 -0.0661505)
(-0.158055 -0.0128613 -0.0481649)
(0.0122173 -0.0138738 -0.0707868)
(-0.025774 0.0250952 0.514169)
(0.262852 0.0561142 0.221234)
(0.0316277 0.0184018 -0.0219606)
(0.0195061 0.0328769 0.0238703)
(-0.0290453 0.0227531 -0.0198423)
(0.129422 0.0296181 0.0634625)
(0.0320269 0.0198009 0.0239819)
(-0.105309 0.0565621 -0.0701337)
(-0.00876987 0.0548102 0.068446)
(0.0048731 0.0112013 0.017797)
(0.00855181 -0.00417795 -0.0182784)
(0.0354893 -0.0289567 -0.0448438)
(-0.0496738 0.116078 0.0330118)
(-0.0551758 0.0770566 0.0542421)
(-0.0358384 0.0966836 0.0393979)
(0.023752 -0.0373091 0.352533)
(-0.0453556 0.0763208 0.0519894)
(0.0832394 0.0272058 -0.0915944)
(-0.0224515 0.0688427 0.0518661)
(0.0183197 0.0528654 -0.0155809)
(-0.0112759 -0.0320668 -0.0184555)
(0.0370847 0.0160948 0.0186584)
(-0.0237317 0.0058419 -0.0170446)
(0.112642 -0.0210758 0.00457674)
(-0.0277712 -0.0182758 -0.0158418)
(-0.0304798 0.0178032 -0.0271923)
(0.336405 0.0340941 0.233453)
(0.157956 0.113846 -0.113319)
(-0.00984961 0.0115299 0.0199887)
(-0.123928 -0.0825071 -0.0744677)
(0.25185 0.134608 -0.170905)
(-0.0418922 -0.0192954 -0.0479825)
(0.0969198 0.0624634 0.0885348)
(0.0701806 0.0279003 0.390941)
(-0.221243 0.0157299 -0.0300014)
(0.0137814 -0.103075 0.0227083)
(-0.0143784 0.0471602 0.0274186)
(0.0697163 0.0625657 0.0885722)
(0.0196452 0.0655853 -0.513384)
(-0.0650959 0.0748382 -0.0480015)
(0.0155262 0.00309935 -0.111885)
(0.0516232 0.0294501 -0.112023)
(-0.028472 -0.011834 -0.0147882)
(0.0187825 0.00879093 -0.00645615)
(0.0126252 0.0200055 0.0415101)
(-0.00545293 -0.0334008 -0.0798439)
(0.237607 0.134549 -0.0664454)
(-0.004036 0.0256794 -0.0414345)
(-0.0407076 0.0105422 0.0100077)
(0.0858695 0.0142754 0.0962367)
(0.0270028 0.0208586 -0.0319038)
(-0.0294626 -0.0174222 0.0484165)
(-0.0217986 -0.0359355 -0.0238423)
(-0.0203502 -0.0799137 -0.0464108)
(-0.0355081 0.0104343 0.0421437)
(-0.0335567 0.0044857 -0.0266521)
(0.0361261 -0.00376321 0.0468766)
(0.03667 0.0372122 0.0353359)
(0.325163 -0.0511859 0.179715)
(0.139085 0.0949148 0.00396655)
(0.108627 -0.407135 0.265091)
(0.216793 -0.643022 0.352553)
(-0.00194579 0.0310499 0.0575226)
(0.0382196 -0.158332 0.510737)
(-0.153667 0.0151991 -0.0737137)
(-0.14095 0.0177674 -0.059373)
(-0.00809452 -0.0110127 -0.0298702)
(0.115631 -0.0615337 0.11635)
(0.523581 0.494912 0.349642)
(0.00568032 -0.105221 -0.0687617)
(-0.0167488 0.0298072 0.0232393)
(0.0017193 -0.104715 0.00879775)
(0.0106746 -0.0847424 -0.106294)
(0.0409678 -0.110768 -0.263354)
(0.0298506 0.0225047 0.0189395)
(0.0533083 0.126717 -0.163661)
(0.805412 -0.122681 -0.406626)
(0.0402138 0.0143051 0.084738)
(0.0514893 -0.0151704 0.00733545)
(0.125032 -0.0058594 -0.154065)
(-0.139019 0.020321 -0.0684922)
(-0.0288427 -0.00403994 0.292099)
(0.20854 0.00722831 0.119883)
(0.289937 -0.0843889 0.137421)
(-0.15915 0.0341104 -0.109808)
(0.0371127 -0.0345966 0.0475002)
(0.113688 -0.0180281 0.0163616)
(-0.0679174 0.25527 -0.319082)
(-0.0440849 0.0158339 0.345954)
(0.061801 -0.11361 0.0511205)
(-0.0625125 -0.0651955 -0.0850482)
(0.0256861 0.0300276 0.229403)
(-0.151018 0.0098801 -0.0430811)
(0.175016 0.00715893 -0.369225)
(0.020641 0.00293935 -0.0309369)
(0.0252626 -0.0300146 0.0375505)
(0.00223665 0.00747905 -0.0593699)
(0.0332356 -0.0148933 0.0381669)
(0.492938 0.0402275 0.262697)
(0.364069 0.0906349 0.261242)
(-0.158739 0.00385214 -0.0639519)
(0.319539 -0.296708 0.239819)
(0.351747 -0.0322652 0.507085)
(1.26142 -0.335555 0.00780336)
(0.394475 -0.0932236 0.475444)
(0.0461736 -0.019376 0.0469021)
(0.168117 0.0719164 0.0362549)
(0.165637 -0.0454966 0.268288)
(0.250682 -0.193862 0.119806)
(0.0146879 -0.0143185 0.0571642)
(-0.0180277 0.0713455 0.0973545)
(0.00306185 0.00600644 -0.041076)
(-0.02474 0.0333925 0.0883084)
(-0.0324704 0.0294286 0.0372706)
(-0.0372428 0.0689474 0.254593)
(-0.0582813 0.0418818 0.118033)
(-0.110545 -0.0973548 -0.0716154)
(-0.011196 0.0785768 0.175523)
(-0.212624 0.315611 0.0178082)
(0.0686566 0.0854888 0.0473713)
(0.0663882 0.0252384 0.0648403)
(0.0648075 0.0406476 0.0821807)
(0.0635001 0.0254583 0.150249)
(-0.0608951 -0.00443018 0.0574122)
(-0.0216022 0.010952 0.173037)
(-0.00091719 -0.0204851 0.423166)
(-0.0619212 -0.109434 -0.0726569)
(0.159975 0.0427391 0.142809)
(0.0111914 -0.00913946 -0.00435672)
(0.00271855 0.0231424 0.0326007)
(0.048119 0.034018 0.0781118)
(0.020369 0.0386141 0.0187282)
(0.258171 -0.214787 0.404861)
(0.346017 -0.202711 0.398669)
(0.0535341 -0.132742 0.455912)
(0.0576624 0.0551644 -0.160559)
(-0.0215165 -0.00520265 0.0427153)
(-0.152059 0.0401318 -0.102142)
(0.247011 0.0691242 0.126781)
(-0.052066 0.000995493 0.0469077)
(-0.072004 0.0418767 0.0774399)
(-0.0162187 0.0115486 0.0245608)
(0.0532926 0.0393254 -0.0736494)
(0.00217437 0.00712033 -0.00639913)
(0.48104 0.249028 0.580163)
(0.0237043 -0.0204988 0.0333787)
(0.125953 0.0867326 -0.00584829)
(-0.0196973 0.0186256 0.0643048)
(-0.0189958 0.000403385 0.0617723)
(0.0934283 0.141344 -0.218451)
(-0.0206539 0.00261456 0.0630249)
(-0.0332969 -0.00511639 0.0549159)
(0.0376167 -0.133089 0.00852841)
(-0.035688 -0.0144011 0.0545425)
(-0.0417688 0.00672001 0.0415465)
(0.0433767 0.0534676 0.0337996)
(-1.19617 -1.06102 -1.04052)
(-0.249452 -0.543656 -0.0116743)
(0.175916 -0.0691476 0.210075)
(-0.126624 -0.0190118 -0.167984)
(-0.00509842 0.0385896 0.033051)
(0.743 -0.142011 -0.165823)
(-0.0574611 -0.0313186 0.0506089)
(-1.3867 -2.60209 -1.67006)
(-0.085735 0.0551754 0.152199)
(-0.00338391 0.0769359 0.109753)
(0.155591 0.0050434 -0.165286)
(0.390752 0.293763 0.633145)
(-0.00172636 0.05164 0.0342014)
(-0.0331982 0.00400166 0.0341596)
(-0.590047 0.0842561 -0.914335)
(-0.0032909 -0.0268244 0.0592396)
(0.0258923 0.0014338 -0.0216757)
(-0.051585 -0.0114083 -0.127618)
(0.0575854 -0.0634927 0.0681024)
(-0.0890482 0.00356753 0.0811433)
(-0.15653 -0.0445113 -0.015804)
(0.0333624 0.0458388 0.0332615)
(-0.0195233 0.0168832 -0.0802953)
(0.0857798 0.0511409 -0.00219719)
(-0.038652 0.00459495 -0.0165214)
(0.0246009 0.0234729 0.358858)
(0.0429184 0.0459088 -0.0890132)
(0.0223472 0.0282817 0.344578)
(0.0455062 0.0280066 0.115283)
(0.0440453 0.00984073 0.0427983)
(0.0268045 -0.000238846 0.372569)
(-0.0432507 0.0166811 0.130402)
(0.0297278 0.0748954 0.0643611)
(0.0394382 0.0253565 0.160022)
(0.00676704 0.0414007 -0.013323)
(0.0502907 -0.0482167 -0.0015995)
(0.0719737 0.0525413 0.0751502)
(0.467672 0.0490278 -0.511737)
(-0.0519519 -0.0463712 -0.0128172)
(-0.0757439 -0.0142119 -0.135776)
(-0.0369831 -0.253522 -0.116229)
(0.0213854 -0.0457171 0.329457)
(0.0398253 0.0126277 -0.0105854)
(-0.111223 -0.0206258 -0.0306479)
(0.0639962 -0.0345086 -0.0423299)
(0.0509188 0.0922818 -0.0143068)
(0.0556919 0.0256588 -0.0818615)
(0.056837 0.0248255 0.0623389)
(0.0337546 0.0457359 -0.0196035)
(-0.0284242 0.111378 0.161937)
(0.0183046 -0.0282302 0.039147)
(-0.0426827 -0.00607146 -0.0252862)
(-0.0336306 -0.0747032 0.266733)
(-0.0596154 -0.0324173 0.235692)
(-0.0143189 -0.107638 0.296331)
(-0.0489114 -0.00820091 0.0935853)
(-0.0858621 -0.0160366 0.188163)
(0.0215151 0.0183471 -0.0409981)
(-0.181179 0.0282532 -0.0949753)
(-0.0348429 0.0068324 0.0412271)
(-0.0236578 -0.0257837 -0.00824422)
(-0.0542818 -0.0233483 0.011162)
(-0.0590891 0.0257367 0.138538)
(0.467363 0.61876 -0.510099)
(0.0417741 0.126652 0.118528)
(0.382609 0.169923 0.0296714)
(0.00568843 0.0335756 0.138441)
(-0.066433 0.0516944 0.0507715)
(-0.027008 -0.0740014 -0.0281519)
(0.0514233 0.128464 -0.0769447)
(0.0064175 0.0553561 -0.0329345)
(0.00813972 -0.0195597 -0.0137924)
(0.0277855 0.0408955 -0.00272975)
(-0.14638 0.0474763 -0.144891)
(0.00282289 0.0031327 -0.0323405)
(-0.0100379 -0.00597343 -0.00649993)
(-0.144531 0.012201 -0.0538085)
(-0.0991405 -0.0349258 0.368126)
(-0.0996554 -0.0611528 0.138211)
(-0.0458367 -0.0326411 0.470411)
(-0.124925 -0.0638544 -0.118828)
(-0.168152 -0.0622796 -0.209872)
(0.0267344 0.00248539 0.0170411)
(0.0103307 0.0534983 0.039034)
(-0.0123038 0.0441861 0.250415)
(0.0496766 -0.0611944 -0.104342)
(0.0186045 -0.0034278 -0.00322115)
(0.0554638 0.137702 0.103963)
(-0.174852 0.0227886 -0.102315)
(0.0670947 0.0896822 -0.0698044)
(-0.049168 0.0881783 0.00463671)
(-0.071095 0.121261 0.007251)
(0.0318697 -0.0163859 0.0451224)
(0.0272595 -0.00883947 -0.044368)
(-0.0380465 -0.0199466 -0.0264638)
(-0.0174177 -0.20391 -0.208356)
(0.0995783 -0.0895462 0.0143611)
(0.0258743 -0.0119172 0.0137889)
(-0.00737953 0.0272379 0.0273425)
(0.0174588 -0.000375935 0.063752)
(0.123539 0.0336352 -0.0762979)
(0.00216055 -0.0309625 -0.00468565)
(-0.0316139 0.0438611 0.0607206)
(-0.00863597 -0.0353335 -0.0578415)
(0.0264372 0.00467023 0.00371292)
(0.0116221 0.0129503 0.0159763)
(0.0452898 -0.0817265 -0.0215901)
(-0.0146452 -0.0236423 -0.061708)
(0.3382 -0.0308467 0.182976)
(0.0343037 0.0336233 0.00406353)
(0.0330389 0.0222652 0.181378)
(-0.102905 -0.00698575 -0.0895509)
(-0.743294 0.0720029 -0.508261)
(0.0129101 2.56779e-05 -0.0190165)
(0.0248106 0.0330044 0.0728148)
(-0.0879184 -0.00851526 -0.0381036)
(0.0177889 0.0204449 0.0714164)
(-0.0749046 -0.001707 -0.0252877)
(0.035197 0.00193051 -0.0701434)
(0.0320241 0.0323516 -0.100839)
(0.328116 0.0196596 0.231344)
(-0.0136709 -0.0060346 0.0203459)
(0.0184625 0.0437304 -0.0122633)
(0.0995726 -0.110027 0.0246662)
(0.0521349 0.0151146 -0.153666)
(0.147791 0.103201 0.283884)
(0.0858171 0.0219093 0.246363)
(0.0730637 0.0265683 0.107228)
(-0.0417274 -0.0716253 0.400653)
(0.0969357 0.049663 0.0463664)
(0.0681253 0.052215 0.10841)
(0.0446435 -0.0454879 -0.0203672)
(0.084526 0.0123734 0.107983)
(0.112482 0.0265396 -0.0680514)
(0.116113 0.0286027 0.36021)
(0.0682073 0.0165278 0.112661)
(0.0687461 0.0344463 0.112907)
(0.181661 0.159989 0.188492)
(0.214313 0.0733387 0.253088)
(0.0782847 -0.0210501 -0.0946641)
(-0.0179367 0.00819249 0.122061)
(-0.0258246 0.0733662 0.187368)
(-0.0088401 -0.0238084 0.292798)
(0.131842 0.0495605 0.113015)
(0.0564584 -0.0273535 0.0133867)
(0.328416 0.345883 0.485296)
(0.111578 -0.155626 0.0108985)
(0.0929093 0.111405 0.121568)
(0.0514778 0.0324016 -0.0751916)
(0.109752 0.087042 -0.0731281)
(-0.0671205 -0.139531 -0.291147)
(0.0338965 -0.0471066 -0.202493)
(0.0296726 -0.0195367 -0.0495517)
(0.0234722 -0.00545331 0.0512777)
(0.0262107 -0.00263293 0.0617117)
(0.0498964 -0.00650757 -0.0130502)
(-0.0371543 -0.0126252 -0.0627379)
(0.00366988 0.013274 -0.0166087)
(-0.00328117 -0.00906222 0.448839)
(-0.0206092 -0.00995739 0.393832)
(0.268876 0.153644 0.149662)
(-0.00383612 -0.0232879 -0.0129303)
(0.00902093 -0.0112382 -0.0308255)
(0.0177102 0.0484712 -0.00365631)
(0.450867 0.242981 0.315507)
(0.737576 0.211409 -0.702053)
(-0.058308 -0.0329017 0.0538761)
(-0.0461558 -0.0607686 0.0615552)
(-0.263849 -0.724518 -0.736597)
(0.0181898 0.039901 0.0168495)
(-0.0471107 0.0646738 0.131027)
(0.0945532 -0.15574 0.481171)
(-0.00491425 -0.106503 0.154982)
(0.0303439 -0.0295638 0.434953)
(-0.0221112 -0.0148276 0.463759)
(0.17628 0.0210938 -0.00211504)
(0.00584774 0.0124329 0.00924321)
(0.0799784 0.000170357 -0.0487506)
(-0.00932434 -0.0714032 -0.0175168)
(0.036683 -0.0192827 0.0618942)
(-0.017816 0.0206521 -0.00299434)
(-0.0402073 0.00157043 0.121955)
(-0.00368255 -0.0450309 -0.0414949)
(0.094046 0.0178882 -0.0774452)
(0.0384329 -0.0367076 -0.0625614)
(0.0614655 -0.0113962 0.014078)
(0.00694249 0.00461686 -0.000898439)
(0.0914331 -0.0138976 0.0085813)
(0.00533335 0.0123343 0.0108482)
(-0.00796754 -0.0500215 0.0618629)
(-0.676739 0.139072 -1.16947)
(0.207155 0.0345586 0.198294)
(0.0725852 -0.037413 0.00911056)
(-0.0561539 0.0182233 0.0703891)
(0.463733 0.249117 0.321536)
(-0.0293128 0.0276802 0.07206)
(0.0326924 0.0195241 0.0465365)
(-0.0212852 -0.0985901 -0.00572292)
(0.036745 0.00304851 0.0578186)
(0.0458818 -0.00353842 -0.110049)
(0.0172301 0.029543 0.244758)
(-0.0481463 0.104106 0.155165)
(-0.084696 0.0161368 -0.0634383)
(-0.0502757 0.0399988 0.0537169)
(0.000605515 0.107201 0.240714)
(0.0641922 0.0453264 0.0198741)
(0.603508 -0.260651 -0.0467465)
(0.379715 -0.0458275 0.0218251)
(1.82796 -0.586752 -0.541695)
(1.3073 -0.207514 -0.185714)
(-0.0636513 -0.0799551 -0.0885318)
(0.661166 -0.299261 -0.00379395)
(0.670123 -0.774687 0.0326612)
(0.134063 -0.39797 0.167518)
(-0.0318996 -0.0663472 -0.040043)
(-0.00824153 0.0155302 0.0802175)
(0.102919 0.155875 0.140337)
(-0.00675764 -0.179683 0.551832)
(0.599406 -0.753478 0.113277)
(0.694274 -1.03178 0.016681)
(0.289438 -0.70997 0.289906)
(0.00804386 0.0444383 -0.0238471)
(-0.190467 0.0219042 -0.105702)
(0.0135194 0.0340486 0.199837)
(0.216888 0.119356 -0.112926)
(-0.0147586 0.100218 0.153221)
(-0.0214903 0.0237384 0.0535803)
(0.325567 0.0135083 0.268496)
(-0.165779 0.0301149 -0.109159)
(0.228082 0.0550562 0.089427)
(0.032568 0.0100313 0.0700146)
(-0.0875885 -0.101237 -0.155653)
(-0.0272614 -0.0163024 -0.0602343)
(0.14807 0.0425735 -0.0586396)
(-0.11349 0.012319 0.093917)
(0.0623529 -0.02166 -0.132204)
(0.169323 0.204426 -0.397006)
(-0.0107972 0.0393978 0.0367283)
(0.138452 -0.0126154 0.0463297)
(-0.00842721 0.00896196 0.0307323)
(-0.0254874 0.0519844 0.00583321)
(-0.165529 0.301342 0.190603)
(-0.0934711 0.296722 0.23633)
(0.101764 0.102539 0.0218185)
(0.0580365 -0.0193172 0.0360067)
(0.144091 0.0298112 -0.0585278)
(0.0535912 0.0788298 -0.0949751)
(0.105324 0.0331423 0.0308216)
(-0.00240084 0.112082 0.143333)
(-0.0234074 0.283772 0.217129)
(-0.0816916 0.178078 -0.184584)
(0.0202019 -0.000228546 0.0583119)
(-0.0353388 0.0540056 -0.00719237)
(-0.0369045 0.0684949 0.238568)
(0.0456319 0.0122293 0.0409583)
(0.0124519 0.0369262 0.00587056)
(-0.0119683 0.015518 0.0190005)
(-0.0225734 0.00173894 0.1867)
(0.0580897 0.0299221 0.0810298)
(-0.0481247 0.00357166 0.0310829)
(-0.0262227 0.0748679 0.09495)
(0.257352 0.0641204 0.195381)
(0.00849101 0.0141809 0.403885)
(-0.00256101 0.0476284 0.377816)
(-0.0227175 0.0477321 0.349521)
(-0.0428041 0.0844601 0.281211)
(-0.123143 0.035806 0.261018)
(-0.0177817 -0.108043 0.031378)
(-0.226889 0.109217 -0.117573)
(0.0244211 0.00151944 0.0704388)
(-0.123571 0.00099469 -0.0274065)
(-0.0757935 -0.0230354 0.0879455)
(0.0413729 0.0365759 -0.0661277)
(0.0551214 0.0725918 0.0313337)
(0.0137987 0.0115686 0.00254163)
(0.537147 0.100269 0.770548)
(0.0127435 -0.00124869 -0.0355998)
(0.143875 0.046796 0.148225)
(0.0775025 0.0646721 0.0921608)
(0.0429083 0.00235379 -0.168014)
(0.118422 0.0551707 -0.210709)
(-0.000134598 0.0597497 0.000488314)
(0.236715 0.121862 0.196006)
(-0.00976582 0.0727508 0.0909265)
(0.238261 0.0906938 0.437919)
(0.0163367 0.0362956 0.229977)
(0.00858169 0.0319905 0.0355998)
(0.0206645 0.00893588 -0.0275499)
(0.0304453 0.0407669 0.0443837)
(0.201075 -0.159805 -0.328703)
(0.237607 -0.135757 -0.47147)
(0.114582 -0.0501729 -0.168954)
(0.0144888 -0.0170314 -0.28922)
(0.140123 -0.0472825 -0.130335)
(0.183258 -0.208115 -0.559891)
(0.148158 -0.0357111 -0.143959)
(0.649233 -0.124312 0.994134)
(0.0034571 0.068404 0.0650945)
(0.629317 -0.200889 0.801644)
(0.777711 -0.274469 1.13537)
(0.621847 -0.259693 0.850902)
(-0.00425247 -0.0156019 -0.014172)
(0.0300776 -0.0176238 0.0213311)
(-0.00551383 0.0318231 0.0480361)
(-0.0428147 0.0212846 0.0122016)
(0.072839 0.0319684 -0.0351796)
(0.030592 0.0386302 -0.00106742)
(0.0743454 0.0165416 0.0295214)
(0.034669 -0.00188227 0.0240582)
(0.00876164 0.0313852 -0.0122553)
(0.0672856 -0.102429 0.0503609)
(1.61414 0.628717 0.0374304)
(0.0411347 0.170197 0.0535746)
(0.615533 0.362844 0.0430196)
(-0.108029 0.0367625 0.0820417)
(-0.0040956 0.0766805 0.0448049)
(0.00813719 0.149968 0.172767)
(0.0151401 0.00853825 -0.00351482)
(-0.153725 0.0845965 -0.174641)
(0.0285482 0.130641 0.164953)
(-0.0356971 0.005514 0.0564558)
(0.0270597 0.025026 0.24325)
(0.059575 -0.130918 0.0124048)
(0.0286374 -0.0676109 -0.0064619)
(0.0173384 0.0356091 0.0882712)
(0.0139694 -0.0115122 0.0184045)
(-0.0504603 0.0220022 0.543232)
(0.0369719 0.013248 0.316994)
(0.0320461 0.0213147 -0.102098)
(-0.0220942 -0.0242103 0.173064)
(-0.0250906 0.0102087 0.151023)
(-0.0260617 -0.00260789 0.179495)
(-0.0268712 0.0410321 -0.0350256)
(0.0450041 -0.0126411 0.0221767)
(-0.0264863 -0.0152003 0.43226)
(1.59006 -0.337003 0.323465)
(0.0154802 -0.012699 0.0349335)
(-0.067346 -0.0436208 0.0834532)
(-0.0267869 0.0509793 0.499887)
(0.0493429 -0.0849064 -0.0779123)
(0.0560835 -0.0943744 -0.0824418)
(0.00490195 0.0788882 0.497275)
(0.0593587 -0.0996425 -0.0759276)
(0.0478836 0.0192508 0.0473689)
(-0.0257466 0.00199399 0.305626)
(0.025463 0.0444156 0.0715861)
(0.00452293 -0.0806664 -0.0093185)
(-0.0458913 -0.0174387 0.29082)
(0.104268 0.0810334 0.0826688)
(0.0115058 0.015313 -0.00359866)
(0.0186211 -0.00167814 -0.0317887)
(-0.0454581 0.0119741 0.0619205)
(-0.0479508 -0.00449209 0.217696)
(-0.0559825 -0.00477171 0.294898)
(0.0790821 -0.0154403 -0.0027234)
(-0.0651472 0.0080124 0.147253)
(0.0319998 -0.0204262 0.1596)
(0.0137225 -0.0254763 0.299061)
(0.00914774 0.00299168 0.356151)
(-0.0185816 0.00806423 0.158052)
(0.267769 -0.449028 -0.530295)
(-0.0253663 -0.0203467 0.47567)
(0.0314823 -0.0186901 0.0379382)
(-0.0219205 -0.0256634 0.412387)
(-0.038557 0.106858 -0.0613863)
(0.164341 0.298846 0.269159)
(0.153838 0.186121 0.394856)
(-0.0612331 0.232328 0.0568828)
(0.112691 0.0609354 0.045648)
(0.00937049 -0.000166824 0.0145715)
(0.0643402 0.187042 0.116942)
(0.111876 -0.00256321 0.186616)
(-0.0149309 -0.0152367 0.0262718)
(0.0492262 -0.098768 0.0309544)
(-0.0117601 -0.100493 -0.060788)
(0.254138 0.0809642 0.459087)
(0.0256477 0.00533778 -0.115144)
(0.0702745 0.0727966 0.0506062)
(-0.0174273 0.026788 0.0287252)
(0.00330053 -0.0323665 0.000990943)
(0.0332392 0.0175161 0.00801635)
(0.0224226 -0.208418 -0.250251)
(-0.00253065 -0.113779 0.015426)
(0.0195769 -0.160453 -0.213187)
(-0.0522562 -0.00823028 0.294403)
(-0.0273377 0.00121062 0.111452)
(-0.0412649 -0.00697195 0.287443)
(0.0186025 -0.0022114 0.120011)
(-0.0659817 0.121612 0.00394612)
(-0.00711117 0.0273451 0.0846946)
(0.0196111 0.0329607 0.0479167)
(-0.0275129 -0.0178438 0.0272733)
(0.00551877 -0.00228409 -0.0227674)
(-0.0358369 0.0395795 0.0706179)
(0.0115796 0.03187 -0.0135471)
(-0.177206 -0.0324394 -0.109672)
(0.243371 0.0474415 0.719313)
(0.582258 -0.379974 -0.271881)
(0.120503 -0.157168 -0.0277621)
(0.097302 -0.269844 0.0975988)
(0.150292 -0.200471 -0.0268354)
(-0.100156 0.0551579 0.196018)
(0.0239469 -0.0794379 0.251298)
(0.238799 0.0198688 0.205025)
(-1.06428 1.30834 -0.849728)
(0.00551074 0.317466 -1.16385)
(0.0422468 0.0145728 0.202434)
(-0.0259549 0.00187059 -0.0147871)
(0.0054246 -0.0167041 0.0413667)
(0.0330883 0.0111415 -0.0894993)
(-0.0141435 -0.00327103 -0.0584579)
(-0.154425 0.0994625 -0.176291)
(-0.870981 -0.15217 -0.688479)
(0.0706133 0.0568187 0.079989)
(-0.375776 -0.161369 0.321442)
(-0.156703 0.0185794 0.363198)
(0.0906765 0.0805189 0.0140733)
(-0.0412284 0.00404628 0.0427049)
(-0.0472478 -0.00423125 0.0679361)
(-0.00343598 0.0752459 0.113502)
(0.000885109 -0.00423055 -0.0257732)
(0.00554326 -0.0384628 -0.005083)
(0.0140028 -0.0391356 0.0288064)
(-0.00310087 -0.023307 -0.0142417)
(0.0199186 0.0098739 0.0468671)
(0.0175008 -0.0253261 0.00853639)
(0.0219115 -0.0406414 0.0264965)
(0.0549385 -0.0398332 -0.145104)
(-0.00851154 0.0409047 0.0849404)
(0.0277831 0.037736 0.0501479)
(0.0249713 -0.000243606 -0.0883204)
(0.0336472 -0.0114848 0.0511202)
(0.0180187 0.00508635 0.0227909)
(0.0501714 -0.026557 -0.0303898)
(0.0246747 0.0327455 0.0931913)
(-0.0203866 0.0136973 0.0594277)
(0.00411989 0.00268004 -0.0166176)
(0.158318 0.125955 -0.00123449)
(-0.152565 -0.0285098 0.0374726)
(-0.0879719 -0.0673919 0.201903)
(-0.0318197 -0.0427168 0.321772)
(-0.043581 -0.0819815 0.31686)
(-0.0148928 -0.0154527 -0.0204993)
(-0.0133376 -0.007039 0.409779)
(-0.0346139 0.00587539 0.411994)
(0.10276 -0.00778873 0.0713804)
(0.0145478 -0.0256669 0.0162753)
(0.000253396 0.00227104 -0.0140021)
(-0.342291 0.202404 -0.11637)
(-0.0325077 0.0197788 0.0979374)
(0.0350308 -0.000722707 -0.339062)
(-0.0626813 0.152528 0.0914921)
(0.0645726 0.0744737 -0.209109)
(0.0371694 0.051106 0.372006)
(0.156083 -0.204488 0.395828)
(0.025998 0.0976987 0.0805474)
(0.22497 -0.17442 0.397903)
(0.27379 -0.136297 0.291538)
(0.0444966 -0.127829 0.0131585)
(0.0226055 0.0140346 -0.030384)
(0.0480576 0.0447799 -0.0929441)
(0.0461092 -0.0363511 -0.127139)
(0.279936 0.073718 0.126028)
(0.0322385 -0.00618051 0.0518814)
(-0.0324965 -0.144879 -0.0240509)
(-0.155816 0.178415 -0.148505)
(0.051606 0.0251842 0.00243383)
(-0.0169562 -0.00753529 -0.0491506)
(0.0249568 -0.0257762 -0.103619)
(0.0470971 0.0233453 -0.112403)
(-0.0705661 -0.0199607 0.0409631)
(-0.125765 -0.0817029 -0.221401)
(-0.148889 -0.0510888 0.0838378)
(0.0453294 0.00986925 0.0162421)
(0.241016 0.035584 0.241781)
(-0.0159932 -0.00827602 -0.0241472)
(0.424406 0.179303 0.424054)
(0.0517288 0.179192 -0.0298933)
(0.063461 0.119275 0.106336)
(0.0483142 -0.0369177 -0.12312)
(-0.021318 -0.00812983 -0.0125067)
(-0.0611111 -0.0592989 -0.0227437)
(-0.160242 -0.237301 -0.0826808)
(-0.290467 -0.338178 -0.118221)
(-0.0316714 0.23176 0.197722)
(0.0286903 0.00471615 -0.0315307)
(0.213256 0.132232 -0.0470847)
(0.0198752 -0.0879186 -0.11613)
(-0.0200999 0.00717621 0.0223661)
(0.0886299 0.110141 0.125224)
(-0.00995673 -0.028213 -0.0158164)
(-0.0371694 -0.00249757 0.0051304)
(-0.0189746 -0.0149365 -0.0687536)
(-0.00353293 -0.09162 0.02429)
(0.045953 -0.0280423 -0.0333448)
(-0.0402146 -0.223462 -0.532153)
(0.00458517 -0.0385302 -0.0469255)
(-0.0287546 -0.0400014 -0.035125)
(0.00514219 -0.0380984 -0.00439371)
(0.0273253 -0.00571951 0.0456075)
(-0.0190031 -0.0145473 0.0271263)
(-0.0186495 0.0267598 0.0481612)
(-0.0250666 0.0496718 0.027695)
(-0.0313286 0.0356654 -0.018538)
(0.104363 -0.0284972 -0.0233317)
(-0.100452 -0.0225271 0.0888656)
(-0.102455 0.0135828 0.00359821)
(-0.0353402 0.0762575 0.00876953)
(-0.0745032 -0.0358876 0.0718667)
(-0.0377727 0.00120178 0.113451)
(0.0100395 -0.0137244 0.0237212)
(-0.0253117 -0.0216061 0.0757114)
(0.0941428 0.0390422 0.0845851)
(-0.0422204 -0.0310941 -0.0191788)
(-0.120309 -0.00376871 -0.105721)
(0.00228338 -0.00300667 0.0596477)
(-0.0208141 -0.00958962 0.0968022)
(-0.0445603 0.0118285 0.159492)
(-0.00776025 -0.008694 0.0501696)
(0.1806 -0.212786 0.0341372)
(-0.181106 -0.018343 -0.0429028)
(0.016541 -0.0226413 -0.107025)
(-0.146034 0.0440193 -0.127189)
(0.028096 -0.0338889 -0.0451354)
(0.0541505 0.0473624 -0.0801635)
(-0.0273413 -0.017393 -0.0685055)
(-0.143711 -0.00634861 -0.336993)
(-0.132467 -0.0703255 -0.0751624)
(-0.0423053 0.00613806 0.0449331)
(-0.0938381 -0.029493 -0.0846544)
(-0.00127235 0.00446563 -0.0165012)
(-0.0603416 -0.0419458 -0.0292601)
(0.235407 -0.229834 -0.12872)
(-0.0570858 0.0117086 0.0513544)
(0.0147809 0.0140287 -0.00228861)
(-0.385215 -0.764277 -0.470488)
(-0.0311666 0.0469988 0.0672556)
(0.238594 0.267809 -0.396959)
(-0.0719244 -0.0311174 0.082392)
(0.293127 0.16542 -0.143678)
(0.0158219 -0.027075 0.0351404)
(-0.0377704 0.0258293 0.0234166)
(-3.50152 0.874711 3.99153)
(0.191422 0.136143 -0.0971928)
(0.0132936 0.00622605 0.0195118)
(-2.68396 1.01192 2.39246)
(-0.000551005 0.00618344 -0.0198412)
(-0.325385 0.367271 -0.395251)
(0.0200185 -0.00268191 0.00951234)
(-2.29487 1.03066 2.94511)
(-2.21941 1.36738 2.31301)
(-0.0266422 0.0124301 0.0906723)
(-0.039694 -0.0654565 0.0233299)
(0.0239779 0.0457463 0.0241159)
(-0.027757 -0.0579803 -0.0301878)
(-0.00582987 0.0318656 0.033918)
(0.0416709 -0.0393656 -0.0377139)
(0.246312 0.0640839 0.108755)
(0.0468556 -0.0332498 -0.0279937)
(-0.0104825 0.00649746 0.0588787)
(0.0222567 0.0327107 -0.0807498)
(1.74874e-06 -0.0101616 -0.041701)
(-0.0590089 0.00490897 0.00982951)
(0.0552076 0.0772251 -0.0420382)
(-0.066828 0.0294016 0.106143)
(0.131451 0.190991 -0.31789)
(0.0871287 0.025981 0.0317815)
(0.323691 0.042144 0.273249)
(0.0737822 0.0855422 -0.135504)
(0.152391 0.118714 0.000797948)
(0.03302 -0.0233526 -0.0444276)
(-0.0259042 -0.0148312 0.189521)
(0.0306921 0.0202981 0.049939)
(0.0321131 -0.091937 0.0450798)
(-0.0208071 -0.00460971 0.503438)
(-0.00610763 0.00484271 0.0392233)
(-0.103072 0.0773111 0.240058)
(-0.0666624 0.0474115 0.404448)
(0.107162 -0.0702415 -0.148122)
(-0.0566079 0.0144024 -0.0324316)
(0.00733613 0.0378831 0.0119796)
(-0.0166681 0.0258198 -0.0466422)
(-0.108509 -0.0684112 -0.0276292)
(-0.00255202 -0.0533649 -0.0359152)
(-0.0881988 -0.054466 0.015722)
(-0.0629097 0.0187851 0.385401)
(-0.0288521 0.0526459 0.0629563)
(-0.0445676 -0.0443015 -0.0195684)
(0.480624 0.274859 0.320211)
(0.0951222 0.112643 -0.133562)
(-0.0378079 0.0325057 0.0521523)
(-0.112093 -0.00372241 -0.101058)
(-0.0615118 -0.0126782 0.0711902)
(-0.0157781 -0.00791518 -0.00369528)
(0.000406548 0.0216555 0.0130384)
(-0.0284161 0.100162 0.15456)
(-0.0364337 0.0130453 0.437445)
(-0.0365813 -0.0855429 -0.0998966)
(0.0278217 0.0550924 0.453176)
(-0.00423443 -0.0239318 0.493005)
(0.0171324 -0.0437885 0.479055)
(-0.010731 -0.0277904 0.488928)
(0.0592314 -0.0625529 0.336186)
(-0.0399326 -0.0220359 0.358965)
(-0.196512 -0.0386887 -0.104312)
(1.54441 -0.370673 -0.830871)
(0.935506 -0.109499 -0.193561)
(0.0396797 0.00355069 -0.0578275)
(-0.0270255 -0.0334598 -0.0458651)
(0.0994858 0.117982 0.342949)
(0.0189725 0.0307436 0.0769432)
(0.0192764 -0.011282 0.054716)
(-0.154115 -0.0723743 -0.268875)
(0.18688 0.143135 -0.0407689)
(-0.288158 0.152062 0.053643)
(-0.0105813 0.0222943 0.0355539)
(-0.076226 0.030435 0.136909)
(0.0255585 -0.0194523 0.0217998)
(0.155598 0.0255988 0.158763)
(0.160561 0.0161982 0.686953)
(0.103906 -0.0175968 -0.0253126)
(-0.335777 0.396432 0.24165)
(0.00822679 -0.0257343 -0.0512884)
(-0.0502496 -0.00249854 -0.00320714)
(-0.106078 0.292755 -0.280335)
(-0.0115107 0.0849493 -0.18119)
(0.0268106 0.0702228 0.0752858)
(-0.0772401 0.0267297 0.144614)
(0.0463206 0.112409 -0.0267621)
(0.136526 -0.117442 0.029807)
(0.234782 0.0771403 -0.282785)
(0.0110995 0.0119886 0.0217055)
(0.0553581 -0.0179441 -0.0821778)
(-0.00536701 0.0337933 0.0275139)
(0.0180409 -0.000571862 -0.0148084)
(-0.00352644 0.0223395 0.0352866)
(-0.123757 -0.0994158 -0.0962489)
(-0.0925976 -0.149846 -0.21069)
(-0.00775199 0.0745726 -0.208951)
(-0.0622957 0.0476109 -0.197196)
(-0.158139 0.069862 -0.230893)
(-0.0959855 -0.117036 -0.214318)
(-0.134647 -0.214901 -0.211536)
(-0.10942 -0.153898 -0.208394)
(-0.00507732 0.00995517 0.257965)
(-0.000774614 0.02863 0.0467334)
(-0.0559221 0.00289511 0.0561853)
(0.0304794 0.0432246 -0.106378)
(0.0046788 -0.0369479 -0.0593842)
(-0.118306 0.0425587 -0.315711)
(0.0664122 0.0207886 -0.168536)
(0.0965567 0.00696146 -0.302334)
(0.030139 0.0147485 0.0466823)
(0.135351 0.0800131 0.00530886)
(0.229501 0.218241 -0.109494)
(0.176751 -0.116277 -0.115967)
(0.195942 -0.206794 -0.199743)
(-0.143781 -0.14025 -0.433278)
(0.0401105 0.0169472 0.331917)
(0.0431168 -0.382278 -0.306184)
(-0.0716264 -0.0953645 -0.0671968)
(-0.066211 -0.0190655 0.0737711)
(-0.00207255 0.0123614 0.0141639)
(0.220303 0.0323732 0.783181)
(0.0359877 -0.0163962 -0.0352672)
(0.130371 -0.256294 0.0731938)
(-0.00226128 0.0118166 -0.0389731)
(-0.107517 0.0939865 -0.0119979)
(-0.0284786 0.0748021 0.0963434)
(0.0160227 0.0629599 0.0552146)
(-0.00608255 0.0116256 -0.0106626)
(0.230189 -0.0719846 0.874394)
(-0.0140708 -0.0141873 0.446649)
(0.017594 0.0269239 0.477783)
(0.0114801 -0.001762 -0.0016499)
(-0.039062 -0.0899169 0.162407)
(0.050264 -0.0271237 0.271766)
(0.0336845 -0.0030262 0.00714775)
(0.0233388 -0.0702476 -0.0485635)
(-0.0310723 -0.0114409 0.0305322)
(0.104635 0.10878 0.126534)
(0.0483229 0.021547 -0.0979671)
(0.0377654 -0.0532476 -0.0620917)
(-0.203708 0.00837328 -0.115774)
(-0.0706891 0.119984 0.210389)
(-0.327588 -0.0770424 0.257485)
(0.0248152 -0.0773849 0.0023505)
(0.00348088 0.0125729 0.0717246)
(-0.0329455 -0.0206269 0.031498)
(0.184769 -0.00272778 0.123986)
(0.115806 0.1279 -0.152786)
(0.0325431 0.0407565 0.0709369)
(0.100387 0.0553039 -0.107539)
(-0.00618156 0.0906958 0.0608895)
(-0.0319929 0.0269365 -0.030378)
(0.0784031 0.0790458 -0.0414896)
(0.0892954 -0.123908 -0.0147387)
(-0.151454 0.100935 -0.345217)
(0.16511 0.065279 -0.0729351)
(0.231656 0.0491451 0.0385022)
(0.144903 0.0372029 -0.0417632)
(0.150382 0.0569936 0.0338007)
(0.0485063 0.0581495 -0.0677972)
(0.110506 -0.0702756 0.0289643)
(-0.0156287 0.0301337 -0.0064084)
(-0.0599514 0.00023983 0.0593949)
(-0.00753264 -0.00680003 0.0215268)
(-0.0360219 -0.00774276 -0.00794496)
(-0.0626425 -0.209688 -0.0433888)
(-0.0827042 0.0419234 0.0801952)
(-0.122536 0.0893747 0.0597585)
(-0.00307331 0.0846344 0.111802)
(0.00351679 0.0061149 0.0298859)
(0.061342 -0.0113411 0.0146358)
(-0.0313789 0.00161866 0.0631018)
(-0.0414597 0.0273565 0.0445783)
(-0.10411 0.0366202 0.256551)
(-0.00525016 -0.0507791 -0.0889782)
(-0.016383 -0.0447523 -0.0188457)
(-0.0193644 -0.0405075 -0.0121165)
(-0.0326344 -0.0135599 0.0619105)
(-0.083811 -0.148591 -0.00450616)
(-0.0851273 0.0202654 -0.0681768)
(0.0377981 0.503609 0.18643)
(-0.0278073 0.0507001 0.0664199)
(-0.00796402 -0.0134422 -0.0620239)
(0.246497 0.0317041 0.24359)
(0.485383 0.182435 0.548943)
(-0.0207818 0.0654217 0.0697078)
(0.0743512 0.0382212 -0.0233254)
(-0.0710578 -0.0367845 -0.0234462)
(-0.00915155 -0.107816 0.00291717)
(0.235361 0.0285691 0.724305)