/*--------------------------------*- C++ -*----------------------------------*\
  =========                 |
  \\      /  F ield         | OpenFOAM: The Open Source CFD Toolbox
   \\    /   O peration     | Website:  https://openfoam.org
    \\  /    A nd           | Version:  11
     \\/     M anipulation  |
\*---------------------------------------------------------------------------*/
FoamFile
{
    format      ascii;
    class       volScalarField;
    location    "60";
    object      p;
}
// * * * * * * * * * * * * * * * * * * * * * * * * * * * * * * * * * * * * * //

dimensions      [0 2 -2 0 0 0 0];

internalField   nonuniform List<scalar> 
20983
(
0.0030419
-0.00195933
-0.00172026
-0.000287668
-0.00179557
-0.00084639
0.00212732
-0.00187926
0.00133722
-0.0121333
-0.000272769
-0.00286891
-0.000593645
0.000874367
0.00372896
-0.00105539
0.00735626
-0.000580615
-0.00108246
-0.000160818
0.00156534
0.00127917
0.0021302
-0.000825598
0.00158845
0.00229045
0.00159114
0.00321947
0.00389097
0.00443476
0.0232832
0.0045611
-0.00371544
0.0038801
-0.00281511
-0.00133779
0.00110146
0.00296123
-0.000528636
-0.00136307
-9.3707e-05
-0.000859932
0.00058981
0.00242729
0.000523332
0.00121145
0.00145312
0.00154887
0.243183
0.241742
0.000532493
0.00567286
0.00142952
0.00580484
0.00451313
-0.00513985
-0.00061588
-0.00120977
0.00218668
0.00263525
0.00115517
0.00207398
-0.00025278
0.000232543
-0.0024562
-0.000272074
0.00384901
-0.00140138
-0.00044767
5.88171e-05
0.00313775
0.0020407
0.00213981
-0.000138693
0.00150943
0.071186
0.0594869
0.00146516
0.0497885
-0.000209818
0.00395367
-0.00383499
-0.00180492
-0.130379
-0.000752419
0.00276695
9.20123e-05
-0.00995917
-0.0171193
-0.000791636
0.00573378
-0.160117
-0.00576404
0.000891055
-0.00473938
0.00261625
0.0124802
-0.00112052
-0.000404041
0.00266167
0.00149768
-0.00059192
-0.00191349
0.00184476
0.000732957
0.0018867
-0.00118387
0.00180487
-0.0411029
0.00371522
0.00169996
-0.0013628
0.00235346
-0.0247383
-0.0209207
0.000406129
-0.13436
-0.0250743
-0.205665
0.0137278
0.0014394
-0.00612804
-0.0131321
-0.00198288
0.000948763
-0.000447395
-2.93161e-05
0.000426071
0.00623453
0.00383714
0.00089303
0.000664113
0.00329835
-0.00110185
0.00197899
0.00223179
0.00163557
0.00237992
0.00399677
0.00428883
0.00645414
-0.00471314
0.00211035
-0.00138048
0.00165769
0.00184496
0.00195171
0.00557929
-0.0263648
-0.0374091
0.00971494
0.00236731
0.000450371
0.00220922
0.0229767
0.0386423
-0.00013503
0.00111712
0.00199116
0.0048569
0.00159128
0.00115374
0.000135575
-0.000151367
-0.0112531
0.000600437
0.000163546
0.000241099
0.000187191
0.000240126
0.00155431
-0.112914
0.0377576
0.0023986
-0.00315391
-0.00103588
-0.0424776
-0.000281994
-0.713307
-0.000931874
-0.000470151
-0.000701467
0.0029031
0.00619354
5.85581e-05
-0.0125459
0.00181524
0.000374187
-0.00240782
-0.00192899
0.00267467
-0.000409813
0.00134093
0.00334817
-0.00129109
0.00303458
-0.00549679
0.00551609
0.00401316
-0.00580729
0.0017057
-0.00809433
-0.000305013
-0.00209943
0.00150088
-0.00264122
0.00172508
0.00142531
-0.102133
-0.000219026
0.000371297
0.02065
0.0210045
0.00160091
0.00101229
-0.000423658
-0.00109123
0.000889366
0.00234684
0.00154772
-0.00173967
0.00161184
0.00274954
-0.00084579
0.00140762
-0.000369
0.000857842
0.00456253
-0.000798546
-0.00053781
4.35063e-05
0.00229609
0.00210123
-0.0219872
-0.173821
-0.00139981
0.0111686
-0.00485074
-0.0062962
-0.000221677
0.00129608
0.00254922
0.00217204
0.00121471
0.0050535
0.0010476
0.00218937
0.00277811
0.127613
0.0553499
0.226026
0.0314326
0.0395843
-0.00084165
-0.00465877
0.00369402
-0.00645052
0.00134939
-0.000298522
-0.000616876
-0.00302678
-0.00160137
0.00257975
0.00244188
0.000749195
-0.00156068
-0.000385877
0.000771392
0.00155113
0.00376012
0.0027939
0.0104795
0.00114637
-0.000296642
0.00246973
0.00402672
0.00206281
-0.00269812
0.0015886
-0.00145642
-0.00138252
-0.00537485
0.000427198
-0.0848892
-0.000779738
0.00187491
0.00370771
0.001587
0.00334401
0.0028367
-0.00164518
0.00561143
0.000718547
0.00261424
0.000501379
-0.000619412
-0.0029639
-0.00218294
0.00164243
-0.00957685
0.00313899
0.00214282
0.000726861
0.000703219
0.00135623
-0.0169399
0.00156696
0.00152003
-0.00429011
-0.020172
-0.0033292
0.00994859
0.0193073
0.0190812
0.00536572
0.000658829
0.0289343
-0.00104353
0.00107233
0.00175409
0.000271684
-0.0268757
-0.0174738
-0.000982
0.00216525
0.00207526
-9.27049e-05
0.00182729
-0.00113955
0.0101955
0.00430889
-0.00182816
0.00134288
-0.00024897
-0.00115294
-0.00165045
-0.00111898
-0.000251558
-0.00205579
-0.0231773
-0.00490541
-0.00128504
0.000124343
-0.0127371
0.0931906
0.0301851
-0.007689
0.00161348
-0.000216078
0.000144576
0.000670963
0.000436112
0.00204009
-3.31886e-05
-0.00324172
-0.000311801
0.00156457
0.00246022
-0.000202906
0.001904
0.00144502
-0.0517054
-0.000296267
0.000849477
0.000741787
-0.00219146
-0.00121823
0.00230489
0.000957781
0.00206529
0.00383572
0.00159033
-0.00153321
0.00651383
-0.000648096
0.00309637
0.000841761
0.00483195
-0.0492354
-0.316634
-0.00240394
0.000817136
-0.0189818
0.091124
-0.0144513
0.000218061
0.00245766
-0.0109618
0.0356221
0.171708
0.00724673
0.011452
-0.000923034
-0.000993554
-0.00304427
0.00369598
-0.000450971
0.00616675
0.0038585
0.000729047
0.00178803
0.00183293
0.0303745
0.00208129
0.0108573
0.00191281
0.00078973
-0.04821
-0.000567047
0.00132646
-0.0004157
-0.00160591
0.00284838
0.0168288
-0.000642545
0.000773428
0.011531
-0.000354063
0.000760185
-0.00101677
0.0187241
0.00932991
0.00170628
0.00936527
0.00148906
0.00189281
0.00133505
0.00263403
0.00894394
0.00119537
0.000203946
-0.000242432
-0.00242353
-0.0015419
0.00389469
0.000788381
-0.00799632
-0.0119257
-0.000524233
-0.0381434
0.00233324
0.000257544
-0.000295839
0.00229898
0.00184421
-0.00037564
0.00987485
5.2622e-05
0.00915811
0.00219334
0.0208337
0.013336
0.00427949
0.00293857
-0.000753244
0.00541798
-3.50042e-05
-0.00130828
8.5403e-05
0.00140261
-0.000420241
-0.0421413
0.00101857
-0.000781066
0.00322066
-0.0203333
-0.00329452
-0.00445597
-0.000915098
0.003141
-0.04965
0.00514437
0.00216529
-0.00099769
0.00203821
-0.00269799
-0.00500912
0.00112199
-0.00546779
0.00139454
-0.000695248
0.000683751
0.0211161
-0.0758609
0.0492686
-0.0265234
0.00340195
0.00161584
0.00266299
0.000695249
0.000343832
-0.00131864
-0.00942224
9.35597e-05
0.000933719
-0.000111173
-0.00055452
0.00668033
-0.0100021
0.00061448
-0.00143332
-0.000326815
-0.00105581
0.00201198
0.000323135
0.011031
-0.390879
0.00190105
0.00193218
0.0120169
0.00199924
0.00131676
0.000251215
0.000883952
0.00381471
-0.000411358
0.00174355
0.00136452
0.000290438
0.00115871
-0.00108232
0.000342038
-0.000209615
-0.00236346
0.0105612
-0.000720044
-0.0020964
0.000786216
0.00132678
-0.00982424
0.00792252
-0.0314822
0.00525537
0.00238351
0.00958645
-0.00267488
0.00440932
0.00171688
1.56982e-05
0.00126275
0.00202565
0.011406
-0.00359463
0.00203938
0.00118452
-0.000496866
0.00617704
0.00369419
0.00193688
-0.000178236
0.00137893
-0.00143351
-0.000147792
-0.00450968
-0.0105964
0.00330193
0.00856418
0.0118803
0.00694123
0.00199931
0.00105791
-0.000666039
0.00318262
-0.000862748
-0.000437995
-0.00115868
-1.12509e-05
0.00575578
-0.137461
-0.0027628
-0.0748335
-0.0173439
0.0106996
-0.0145653
0.00218143
0.0327486
0.0359394
0.317571
-0.00113267
0.00260517
-0.00114195
-0.000610572
9.07794e-05
-0.292387
0.00130887
-0.303224
-0.187494
0.00140605
-2.91158e-05
-0.000813207
-0.00077456
-0.000419064
0.00116433
0.000111863
0.0019042
-0.00105242
0.00174015
0.000750479
0.00316972
0.00060518
0.00108406
0.00268849
0.0011442
0.00192275
0.00193582
-0.000782465
0.00291094
0.00210178
0.00250651
-0.0185958
-0.0098892
-0.00861901
-0.000678217
-0.00120568
0.000627161
-0.00596563
0.00109477
0.00263943
-0.00142155
-0.000491525
0.00147441
0.00397992
0.0167974
-0.0166708
0.000210203
0.0131962
-0.0012664
0.0136235
0.0398286
0.000514114
-0.00163774
0.00521916
0.00248376
-0.033276
0.00212926
0.000241333
0.00020089
-0.00180194
0.00145571
-0.000322355
-0.000778448
0.000962079
-0.0161146
-0.00559644
-0.000102361
0.00216426
-0.00120558
0.00371248
0.00334778
0.00111309
0.00296549
0.00277275
0.00128833
-0.248093
-0.285572
-0.0895585
0.0021427
0.00205526
-4.74821e-05
0.0014564
0.00123703
0.0014632
-0.00106375
0.000889437
0.00200247
0.00114646
-0.0699426
-0.000269067
0.00465704
0.00431758
0.00439168
0.00348556
0.00589496
0.00657248
-0.000477778
0.00375739
0.0022487
0.00258999
0.00213698
0.00254831
0.00244866
0.00265791
0.00261047
0.0035918
-0.000734134
0.000671122
0.00262193
0.00314679
0.00240286
0.00271963
-0.000760246
-0.00124721
0.00343918
0.00347942
-0.00153982
0.000721596
-0.00180782
-0.0206614
0.000425577
-0.000116792
0.000843837
0.00207555
-0.00310505
0.00387879
-0.00101774
-0.0004934
-0.120009
-0.000279846
-0.119266
0.000110276
0.0019254
0.00167961
-0.000523182
0.0443672
0.00160533
0.00180919
0.0912446
0.00140072
-0.000434548
0.00156335
-0.00101883
-0.000959408
0.00235866
-0.000199052
0.00323597
-0.00103415
0.00320906
0.00221375
0.00224863
0.00199985
0.000703741
0.000173065
0.00025454
0.00193623
0.000387314
0.000839117
-0.0319305
0.000674499
-0.0039294
-0.000421611
0.00188962
0.000805972
0.000214689
0.00143
0.000772745
0.0187111
0.00638444
0.00977198
0.00759915
-0.0166834
-0.00110838
-0.00150324
-0.00126526
-0.000478243
-0.00151939
-0.00112601
0.00580907
-0.000126144
0.000953851
-0.00349757
0.00249129
-0.000363425
0.000601559
-2.54308e-05
-0.000656628
-0.000154737
0.0151247
0.0608514
0.0413772
0.0172569
0.00641944
-0.013252
-0.013081
-0.0395792
-0.0392892
-7.80219e-05
-0.183014
-0.00801999
0.000603779
0.000833732
0.223168
0.00194527
0.00209754
-0.0554249
0.00192402
0.00517369
0.00108054
-0.000115078
0.00189976
0.000285543
0.00562101
-0.000619592
2.38623e-05
0.0012228
0.00292457
-0.000860697
-0.00016138
0.0015285
0.000260626
0.00261568
0.0002077
-0.0707827
0.00146977
0.000560583
0.00501563
-0.00021108
0.00243696
0.000558442
0.0403259
0.00215648
0.00949203
0.00232249
0.040068
0.0200738
0.0419025
0.000322554
0.00132302
-0.000994323
-0.00120692
0.00197706
-0.0126855
-0.00316859
-0.0228614
-0.000981884
0.00151045
-0.0443938
0.0627984
0.0284802
-0.0160231
0.0100509
0.019329
0.000843837
0.000170684
0.00505686
0.00583718
0.000993481
-0.00200684
-0.000684571
-0.000599621
-0.000366991
-0.00114877
-0.000200085
0.00417152
0.00775308
0.0357711
-0.0010533
-0.0116682
-0.0012828
-0.00126836
-0.00171817
0.00198836
0.00112605
0.00342284
0.00105232
-0.000124981
0.00276375
0.000689775
5.3411e-05
0.00355678
0.000630482
0.000494797
-0.0011003
0.00163832
0.007716
0.00223303
0.0022857
0.00929344
5.94011e-05
0.000841839
0.00913165
0.00468003
0.0137063
0.0161104
0.000887001
0.000567465
-0.00160548
0.00107923
0.00215589
-0.00114825
-0.013516
0.00172715
0.00295845
-0.000280465
0.00180695
-0.000986375
0.000527696
-0.000309607
0.000560805
0.000501791
-0.000952376
-0.000766838
-0.00025265
-0.000168594
0.000942154
-0.001197
-0.00044024
8.81444e-05
0.00301979
0.00351559
-0.00120208
-0.000965933
-0.000320416
0.0011388
0.00545775
-0.00164741
0.00112134
0.00335463
-0.000965738
-0.00211467
0.00128429
-0.000880237
-0.00733296
0.00024332
0.0110532
0.000860094
0.0174517
0.00173572
0.000937088
0.000984489
0.000223913
0.00208582
-0.00309047
0.0064432
-0.0014776
0.00307366
0.00143367
-0.000192514
0.00205364
-0.00441477
0.0142757
0.0167712
0.00254067
0.0314524
0.00440408
0.00164008
-0.00423765
0.000564149
-0.00184902
0.00538981
0.000597931
0.000802204
0.00105562
-4.75478e-05
-0.000701924
0.00347469
0.000704402
0.000594253
5.75805e-05
-0.0169239
-0.000180974
0.000194295
-0.00155085
0.0130169
-0.000649591
0.00233806
0.000101225
-0.000697645
-0.00154092
0.000587397
0.00192197
0.00033043
0.000665464
-2.86405e-05
0.0018884
-0.000682867
-0.0028204
-0.000429793
-0.0044249
0.00468409
-0.0040855
-0.00112057
0.00145948
0.000825224
0.00122988
-0.00165063
0.000647823
0.00142079
-0.00059212
0.00134624
0.00310118
0.00151149
-0.00152988
-0.00216904
0.000136034
-0.00129678
0.00320145
0.00170574
0.00301892
-0.00164166
0.00303072
0.000415856
0.00558946
-0.000280616
0.00104417
-0.000416027
0.00558385
0.000522954
0.00061498
0.000242417
0.000350652
0.00347266
0.00391223
0.00156854
-0.000290771
-0.00176669
-8.00892e-05
-0.00330163
0.00254201
-0.00117003
-0.00876216
0.00201783
0.000136776
0.000231182
0.00366555
0.00195832
3.58874e-05
-0.0019288
-0.00227374
-0.000334178
-0.00128575
0.00402537
-0.00182673
0.000518294
-9.58243e-05
-0.00159938
-8.67821e-05
0.000524732
0.000268276
-0.00012553
0.000135566
-0.0013888
0.00603559
0.00640817
0.00633402
0.00251148
0.000352051
0.00213187
0.00244402
0.00398253
0.00176178
-0.000755991
0.00452329
-0.00276376
-0.000118836
0.00198032
-0.00106772
0.00616502
-0.0189418
0.00134574
0.00104593
0.00215155
0.0022063
0.00446026
0.00109627
0.000981866
0.000390024
0.0021132
0.00118035
0.00320254
0.00258217
0.000488872
0.000801237
0.00117779
0.00112955
0.000864426
0.000880349
0.000472305
-0.00483163
0.00245094
0.00305147
0.00105365
-0.00419839
0.00251739
0.00172931
0.00137809
0.000962461
0.00231931
-0.00122536
0.000873986
0.00480388
0.00210061
0.000256886
0.00107546
0.00336269
0.00205177
-0.000844842
-4.62002e-05
0.00110654
-0.000298156
0.00204501
0.000917147
-0.00557661
0.000518667
0.000265098
0.00591597
0.00120777
0.00155845
0.000711777
0.000230434
0.000434397
-0.000271582
-0.00124528
0.00363377
-0.00157425
0.00180255
0.000819171
0.00410927
0.00103915
0.00536761
0.000506097
-0.000692987
0.0035259
0.00196547
0.000750209
0.00174359
0.00429125
-0.000218689
-0.000977477
0.00340574
0.000392392
0.00293855
0.00248098
-0.000982069
0.00102638
0.00219542
0.0021507
9.36926e-05
0.00144966
0.00309359
0.00110712
0.00234994
-0.0882335
-0.0170822
-0.0087269
0.00280347
0.00642409
0.000754124
-0.0119379
0.00193286
-0.00377661
-0.020469
-0.000594137
0.000551535
0.00283133
-0.0001275
-0.000415238
0.000122416
-0.000207521
8.44182e-05
-0.000539297
-0.000627382
8.00644e-05
-0.000967659
-0.000389006
0.00105465
3.34234e-05
0.00245357
0.00100636
0.000255441
0.00207793
-0.000539081
0.00188042
0.00244726
-0.000505356
0.000946823
0.000342107
0.00291163
0.00192188
0.000694104
-0.00273227
-0.00160176
0.000228368
0.000782248
0.00174523
-0.00203657
0.00090716
-0.000529774
-0.000941426
-0.000510187
0.0007397
-8.25886e-05
-0.00101332
0.00302688
0.00918056
0.00369418
0.00268193
0.000796117
0.0423249
0.00896038
-0.0635279
-0.0859007
-0.0319445
-0.0134129
-0.0144854
0.0011526
6.39138e-05
-0.000667114
0.00321782
-0.00164722
0.00189561
0.00182568
0.00205547
0.0012854
-0.00061687
0.000129565
0.000536624
0.000143431
0.00269884
-0.000658613
-0.00264467
0.00201614
0.002686
0.00164913
0.00078923
0.00429594
0.00246642
0.000590208
0.000847553
-0.00192816
0.00166924
0.000803214
0.00199025
0.00111241
0.00117305
-0.000939511
0.0028592
-0.000185263
-0.00354257
-5.36529e-05
0.000450769
0.00195327
0.00178386
0.000787387
0.000405972
0.0139419
0.00998133
0.00397592
0.00164675
0.000813706
0.00210024
0.00196015
0.00309207
-0.000575751
-0.000761404
0.00172037
-0.00165008
-2.75489e-05
-0.000468546
-0.000234953
-0.00107074
0.00172471
-0.00176691
0.00161606
0.000816644
0.000177853
0.00177662
0.00508317
-0.0471578
-0.0431373
-0.054948
-0.0140348
-0.234859
-0.0675045
0.00106848
0.00116374
0.00161502
-0.000724138
0.00216207
-0.000562794
0.00257168
-0.00180184
0.00384578
0.0115564
0.00292746
0.000238848
0.00136786
-0.00564395
-0.00694131
-0.00426418
-0.00100877
0.000166957
-1.13527e-05
0.000396759
0.000305551
0.000492996
0.00192536
0.000551155
0.00243373
0.00173699
0.0025106
-0.0259549
-0.00165472
0.00151409
-0.000490042
0.00193922
0.000902852
-0.00125347
0.00101458
0.0079218
0.0561309
0.0295429
0.00626982
0.00142253
-4.49676e-05
0.00145982
0.000101767
0.000816604
0.0005568
4.28353e-05
0.00165566
-4.69895e-05
0.000881636
0.000763555
0.00309715
0.000189058
1.22161e-05
-0.00247965
0.00195183
0.00119249
0.000678331
0.00106831
0.00754434
-0.00174081
0.00222331
0.00158861
-0.00242118
0.00289593
0.00157146
0.0024878
0.00201141
0.00126354
0.000644777
0.00227623
0.00188819
0.000518904
0.00308842
-0.00127782
0.00096483
-0.000991987
0.00194147
0.00196923
-0.000426602
0.00312647
0.00166546
-0.000282578
-0.00285344
0.000731329
-0.000243184
-0.00131604
-0.000493294
0.00211306
0.00166073
-0.00059766
0.00155727
-0.000352659
-0.000973868
0.000262395
0.0022811
0.00529246
-0.000251382
-0.00157992
-0.00319619
-0.000409718
0.0047563
9.83826e-05
0.000822751
0.00805818
0.00444348
0.00606093
0.00015639
0.0292929
0.00264568
0.00272365
0.0063664
0.00454939
-0.00116861
0.000118934
0.00785105
0.00114071
0.00164357
0.00203073
-0.000432437
0.000694356
9.40339e-05
0.00479769
-0.00350584
0.00224021
0.00157374
0.000141931
0.00332449
0.000968263
0.00401108
0.00309783
-0.00040943
0.00119574
0.000888335
0.0015025
-0.000655718
0.00704181
0.00814919
0.00563641
0.00711765
0.0122612
0.00768866
0.000858643
0.00137189
-0.00148756
0.000827557
-0.00138356
0.000950408
0.00376385
-0.00137096
0.00348084
-0.000464213
0.000308748
0.00135447
-0.000110317
-0.000986399
0.00340151
2.20312e-05
3.67196e-06
0.00258484
-0.000730502
-0.00577458
0.0064365
-0.000904657
0.00241254
0.00185975
0.00386318
0.00251624
0.00110586
0.00345645
0.00134773
-0.00159934
0.000472328
0.00138531
0.00207074
0.002314
0.00172266
-0.000110115
0.00147317
0.00194901
0.000674817
0.00137618
0.000238762
-0.00112003
0.00208898
-0.000944382
0.00178818
0.00125837
8.13211e-05
-0.00472398
0.00231751
0.00202265
0.00167207
0.00334577
0.00114401
-0.000129824
-0.000299516
-0.0698631
-0.0578616
0.0215575
0.0619885
-0.108616
-0.0492523
-0.000419282
-0.00134122
0.000662909
0.000245637
0.00111238
-0.00665039
0.00196567
0.0032687
-0.0014285
0.00403869
1.92219e-05
0.00278561
0.00108685
0.00196539
0.00187492
0.00076324
0.00939492
0.00158294
-0.0148434
0.00230833
0.00169585
-0.000558158
0.00261129
0.00104015
0.00137904
0.0015747
-0.00136851
0.00110918
0.00214783
-0.0109607
0.00226443
0.00375268
0.00429062
0.00103137
0.00162755
0.00241759
-0.000688745
-0.00845466
-0.0020403
-0.000575852
-0.00123089
0.00157177
0.00160348
-0.00820168
0.000843316
-0.00138926
-0.000722738
0.00220909
0.000632836
0.00254097
-0.000701637
0.00443787
-0.000339937
0.00366016
0.00359721
-0.00060609
0.000639963
0.0018967
-0.000318939
-0.00253675
0.00134561
0.000285487
0.000401659
-0.00147244
-0.0179215
0.00233115
0.000329035
0.000566326
0.00168557
0.00127967
0.00303555
3.34331e-05
0.00156053
-0.00110929
0.00286454
0.00150654
0.00218254
0.0023857
0.00148723
0.000703175
0.00469594
-0.000553518
0.00124227
-0.000716611
-0.00149357
0.00232987
0.00198948
0.000495842
0.000627921
0.000589737
-0.000217259
0.008358
-0.000442729
-0.000287137
0.00241657
-0.000271911
6.32916e-05
0.00604772
0.00236588
-0.00160464
0.00292165
0.00114824
0.00704875
0.00118951
0.00181568
0.00147377
0.00145432
0.00297579
0.0013584
0.00309184
0.000500569
0.00024303
0.000170935
0.000242716
0.00163026
7.16176e-05
-0.000727545
0.00135243
0.00207212
0.00222622
0.00249059
0.00542735
0.00170654
0.00226057
-0.000149
0.000940186
-0.00463953
0.00149386
0.00711923
0.00146445
-0.000430269
0.000222982
0.00232853
-0.000165856
-0.00247458
-7.91674e-05
-0.00160363
0.000729869
0.000758032
0.00137537
0.00225331
0.00183175
0.00025381
7.65307e-05
-0.00188488
0.00314761
-0.000979359
-0.00106043
0.000791476
0.00176731
-0.00110083
-0.000470877
0.000409794
0.00191637
-0.00064092
0.00151446
0.00108127
-0.000573968
-0.00023827
0.00070055
-0.000333729
-0.000442365
0.00232955
0.00203047
3.02242e-05
-0.00557614
0.00156568
-0.00729403
-0.00704919
0.0125012
-0.00071107
0.00148547
0.000269177
-0.00162402
0.00970083
0.000966862
0.00139774
0.0019942
-0.000487774
0.00415434
-0.00657636
0.00139233
-0.000236631
-0.0280131
-0.0270729
0.000934495
0.0016671
-0.000502153
-0.00256081
-0.000493679
-0.0021246
0.00572618
0.00135522
-0.00140639
-0.00374841
-0.000788985
-0.00339339
-0.000336603
-0.000670399
-0.000691115
-0.00208452
-0.000996283
-0.00212583
0.00028724
0.00032333
0.000287414
0.000229337
0.00178733
0.00180605
-0.00118443
0.00357929
0.00194499
0.00240746
0.0234485
0.0168096
0.00993048
0.014712
0.000653475
0.00609785
0.00457387
0.00496479
0.00135314
-0.000627699
-0.000910067
-0.00202456
0.00227061
0.000478896
0.0090414
0.00885508
0.0073759
0.000621439
-0.00491873
-0.000857487
0.00606663
0.0049228
0.00259212
0.00167773
0.00155215
-0.000661269
-0.0001609
0.000668036
-0.000415626
0.000135935
0.0569879
-0.000474684
0.000684623
-0.000919103
-0.00763241
-0.00108774
-0.00324154
-0.0163251
-0.000178669
0.000291967
0.00131571
0.00158895
0.000842396
-0.000405966
0.00743613
0.00664392
0.00553908
-6.02315e-07
0.00183667
0.00152345
0.00293747
-0.000218457
0.0115457
0.00147314
0.00212297
0.00181779
0.00114125
-0.00106319
-0.000893471
0.0017274
-0.00136586
0.00257891
-0.00480824
0.00119916
0.010208
0.0167673
0.0133599
-0.000342449
-0.00416209
-0.0014078
-0.000876159
-0.00121893
0.00139684
0.00117657
0.000132787
0.00270484
0.00191907
0.000861344
0.00231973
-0.000447006
0.00140058
0.00298726
0.00151463
0.000545325
0.000648596
0.0010806
0.000636246
0.00405553
0.00800927
0.00137943
0.000171484
-0.000615075
-0.000295883
0.00193385
0.00210794
-0.056732
0.00599519
0.00121697
-0.391282
-0.666054
0.00175908
-0.000607116
0.00219334
0.000755004
0.00137588
0.00163798
-0.000553568
0.00137909
0.00129028
0.00191993
-0.000179434
0.000719387
0.00533957
0.00126631
0.0134403
0.00290882
-0.0295014
0.00149011
0.0017376
0.000627044
0.000668549
3.70781e-05
0.000468086
0.00103592
0.00167384
-0.00103241
-0.000958042
0.00326271
0.00118346
0.00188302
0.00282424
0.00192177
0.0152585
0.0262397
0.00724527
0.00133071
0.00856505
-0.00111171
0.00185138
-0.00129421
0.000709409
-0.000874643
0.00152098
0.000916397
0.00152543
0.000442451
-0.000869023
-0.000884812
-0.00107398
0.00186845
-0.00105763
-0.000154822
0.00384477
0.00210162
-0.00102035
-0.000370353
0.000989567
0.00068
0.000167973
0.00261326
0.00513284
0.00224017
0.00278257
0.00100272
0.0064715
0.00296352
0.00295198
0.00166722
0.00173932
0.00215172
-0.00121884
-0.00126959
0.00372161
0.00165832
0.00153158
0.000398362
0.00176571
2.18843e-05
-0.000812512
0.000270403
-0.000752279
-0.000872782
-0.00190501
-0.0140885
-0.00938663
0.00350084
0.00181433
-0.00369901
-0.000741898
0.00124716
-0.000100813
0.000387636
-0.000131846
-0.000459142
0.00347209
0.00248407
0.007514
3.50666e-05
0.00635875
0.000744957
0.00688033
0.00448655
0.00399516
0.00224703
0.000927075
0.00461161
0.000457085
0.000104217
-2.66955e-05
0.00108855
0.000669084
0.00115135
0.00019409
0.0033813
0.00234865
0.00178179
0.00080786
0.00149611
-0.000205793
-0.000661723
0.00332342
0.00693936
-6.28973e-06
0.00178298
0.00177702
0.00205137
0.000259747
-0.00098562
0.00274296
4.05197e-05
0.000270569
0.000918757
0.000604491
0.000597523
0.000977378
-0.000626983
0.000331915
0.0010936
-0.000623074
0.0035871
0.00107659
0.00151998
0.00297104
0.00270444
0.00266273
-0.00137362
-0.000214019
0.00167454
0.00188411
0.000319782
-0.00364509
-0.00185519
0.00171443
0.00167068
0.00126761
0.00226577
0.00127775
0.00122904
0.00160419
0.00783593
0.003396
0.00151577
0.00147488
0.00162616
0.00160344
0.00174489
0.000842899
0.000693285
0.00159164
0.00142333
-0.00146322
0.000492698
0.000805
0.00157243
-0.00145711
-0.00144615
0.00352657
8.37438e-05
0.00409972
0.00174183
0.00185326
0.000901406
0.000979774
0.00295279
0.00119004
0.00294803
0.00370026
0.00284478
0.00344293
0.0025019
-0.000471474
0.00176107
0.000123095
0.000779161
-0.00173554
0.00113953
-0.00115823
-0.0013221
0.00307131
5.0555e-05
-0.00375439
0.00524818
-0.000156805
0.000688974
-0.00104865
-0.00117757
0.00212216
0.000874386
0.00106041
0.00167814
0.00408867
-0.000837518
-0.00139242
-0.00171542
-0.000990832
-0.00257048
-0.00131525
0.00108594
-0.00224069
-0.000262421
-0.00217613
0.00110986
0.00257005
0.00141063
0.00221118
-0.00105513
0.00181923
0.000332549
0.00208619
0.000484509
-6.82019e-05
5.80746e-05
0.00196903
-0.00221472
-7.74484e-05
0.00104226
7.12743e-05
-0.00442026
0.00544732
0.00317036
-0.0025797
0.00368443
-0.00493267
-0.000401154
-0.00064128
0.00119354
0.00248307
0.00136218
0.000920466
0.00131993
-0.000148617
0.00301958
0.0025194
0.00664665
0.0012566
0.00259479
0.00258336
0.00264494
0.00269145
-0.00129262
0.00272129
0.00280375
0.00137331
-0.000925842
-0.00162714
0.00227004
-0.00111877
-0.00101325
0.000929412
0.00317421
0.00616025
0.000987664
0.002334
-0.000835372
0.00154643
0.00199709
0.000380605
-0.0105016
0.00384973
0.00193711
-0.0146257
0.00286198
0.00485596
-0.020327
-0.00123216
0.00211688
0.000471755
0.0057377
-0.00208087
0.00361478
0.00291237
0.00136423
0.00535026
-0.00343111
-0.00398764
0.00061734
-0.00012934
0.000637855
0.00109254
0.000482646
0.0036736
0.000229138
-0.000553874
0.00331382
0.00353491
-0.00126964
-0.00100923
-0.00174225
0.00152553
-9.51101e-05
0.00273958
0.00231317
0.00160477
0.000822057
0.0021732
-0.000142245
0.0223191
0.0410581
0.0320999
0.0447561
0.00990191
0.0406307
0.000999063
0.000535798
0.00239911
-0.000802824
-0.000585988
-0.000610485
0.00308401
-0.000354398
-0.000447151
0.000208973
-0.0013627
0.00162473
-0.020319
-1.28213e-06
-0.00103238
4.47513e-05
0.0013839
0.000351253
0.000444056
-0.00137784
0.00292901
2.46711e-05
0.000460661
0.0440169
0.0383372
-0.000509672
0.0667169
-0.00132369
0.00268218
0.00308767
0.00328188
-0.00646288
0.000541597
-0.00310498
0.000435982
-0.000722683
0.00103293
-0.000161648
0.00346815
-0.00544983
-0.0595449
-0.0730982
0.0077561
-0.00433584
-0.0953913
-0.0137194
0.00123346
0.0020246
0.00293357
-0.000937183
-0.000163797
0.0013542
0.00597911
0.000587264
-0.000551508
0.00303894
-0.00136913
-6.55792e-05
-0.00257454
-0.00403472
-0.00412573
-0.000975823
-0.00559885
0.00146543
0.000364299
0.000775983
0.000501673
0.00073738
-0.000603234
-0.00383339
0.00239212
7.64816e-05
0.000482917
-0.00101792
-0.00116863
-0.0015924
0.00420654
-0.00164316
-0.00128135
-4.23772e-06
0.000322986
0.00343799
0.000719469
0.00350082
-0.000433078
-0.000682965
0.00207013
9.37685e-06
-0.000804132
0.0018632
0.00424276
0.00238219
0.00441411
-0.0470617
-0.0174793
0.000838519
0.000297136
0.00177364
0.00241662
0.00109642
0.00125756
0.000909534
0.0155048
0.00507327
0.017794
0.0108806
0.00675211
0.000429114
0.0114155
0.000439097
-0.000182532
-0.000171893
0.000392039
0.00409653
-0.00085618
-1.57941e-05
0.0013397
0.000338272
-0.00189295
-6.08236e-05
0.00087016
-0.000417192
0.0014139
0.00198927
0.00438322
0.00155592
0.00230355
0.00107834
-0.00158573
0.00181644
0.0021434
-0.00138666
0.00147225
0.00135631
0.00137566
0.00193439
0.00171005
0.000856356
0.00312225
0.0025762
0.0105824
-0.000826669
-0.00110338
0.000425351
0.00247605
-0.00136352
0.000602254
-7.37708e-05
-0.00795019
0.00372199
0.00193474
-0.000221778
0.00195031
-0.00138316
0.000829682
0.00185636
0.00132744
0.000863231
-0.000348293
0.00466124
0.00273102
0.00719185
0.000326281
0.00133317
0.00492589
0.00667342
0.00281702
0.00341889
0.000695741
-0.0021128
-0.00117217
0.00347719
0.00352034
-0.000424898
0.000123701
0.0120296
0.00374022
-0.00281046
-0.00174495
0.0648225
-0.000680434
0.00104688
0.00255755
0.00663233
0.0226012
0.0337649
0.00887657
-0.000113272
-0.000879297
0.0143135
-0.000348666
0.00242214
0.00846988
0.00184132
0.00148651
0.0033476
0.00248363
0.00129281
0.00252965
0.000327573
0.00569023
0.00102715
0.00180717
0.00142322
0.00394902
0.225868
0.113403
0.21646
0.107483
0.108803
0.0907408
0.0615574
0.0515208
0.0911568
0.00460612
-0.00089588
3.60196e-05
-0.00674656
0.00132916
0.00176552
0.00514673
0.0060683
0.0017855
0.000436353
-0.00101225
0.00195116
0.00165172
0.00224063
0.000327141
-0.000563408
0.000891435
0.00102398
0.00257914
0.00285522
-0.00454448
-0.000997249
-2.34757e-05
-0.00128971
-0.000973909
-0.000483569
0.00132948
0.00174941
0.000765347
0.00209336
-0.0011773
-0.00131092
-0.000564281
0.00268859
0.0011079
0.00146893
0.000496657
0.00210964
0.00339057
0.00381621
0.0126622
-0.0241378
0.00183962
0.0112338
0.0241164
0.00164428
0.0110407
0.00995987
0.0199827
0.00220626
0.00168281
0.00179661
-0.000424196
0.00916568
-0.00107692
-0.00090999
-0.00119329
0.0149406
-0.0123608
0.0139671
-0.0122449
-0.0178469
0.0142837
0.000565817
0.0147432
0.00210326
0.00559343
0.00406657
0.000161046
0.0016803
-0.00160954
-0.000792255
0.00139068
-0.00181479
0.000255541
0.00186079
-0.0019344
0.000274213
-0.000751371
0.000693735
-0.000853707
0.000984438
0.000508127
0.00120866
0.0011101
-0.000882186
0.00163228
-0.000241771
0.00257103
0.00132305
0.000505465
0.00138994
-0.000679411
-0.000979061
0.0013854
-0.000545428
0.00240613
0.000333048
0.00341344
-0.000891615
-0.000219772
0.000408124
-0.00169295
-0.000671
0.00260069
-0.0011955
0.0018579
0.000564492
-0.000212755
-0.00016621
-1.44258e-05
0.00152564
-0.001057
0.00635222
0.000198749
0.00097566
-0.000234463
0.00856892
0.00195903
0.00110188
0.00197189
-0.000685231
-0.00229781
-0.000826144
0.00249594
0.00665534
0.000645842
0.00759843
-0.0052234
0.00671515
-0.000270054
-0.000754026
0.000695566
-0.000153381
0.00012946
0.00448098
0.000858709
-0.00123687
0.00140088
0.00294187
-0.00299294
0.00139349
-0.00124022
-0.000636762
-0.000287886
0.00018353
0.00126659
-0.00044969
0.000164285
0.00082135
-0.000976915
-0.00089572
-9.65532e-05
0.00264185
0.000535084
0.00178428
-0.000649974
0.00318629
0.000869924
-0.00113933
0.00173466
0.00329835
0.00202186
-0.00100029
-0.0155105
-0.00120072
0.00129768
0.000566299
-0.00158701
0.00338708
0.00249198
0.00395467
0.00160089
0.0017511
-0.00119898
0.00122694
-0.00101762
0.000977393
-0.00133982
-0.00456665
0.0162319
0.0192807
0.0153084
0.0213611
0.00933912
0.00778455
-0.000422986
0.000106901
0.00203345
-0.00107472
0.00613284
0.000241466
0.00106382
0.00217757
0.00279468
-5.42574e-05
-0.000432993
0.000139276
0.00127246
-0.000619282
-0.00155792
-0.00624192
0.00753868
-0.000966905
0.00040587
-0.0027148
-0.00125418
0.00212808
-0.00139552
0.00114747
0.000543514
0.00276765
-0.000321373
-0.000340047
-0.00114037
0.00232035
0.00187661
0.00111114
0.00207211
-0.000823299
0.000417986
-0.00479481
0.00033698
0.00582885
-0.00127684
0.000886411
0.00090686
0.000814578
0.000571727
-0.000166327
0.0014696
0.00516609
-0.00130441
-0.0276627
0.00153004
0.000803055
-0.00088099
-0.000842536
-0.000546557
0.00115657
0.000927606
-0.000346227
0.00210708
0.000944854
0.00359348
-0.101547
0.00228355
0.000115723