/*--------------------------------*- C++ -*----------------------------------*\
  =========                 |
  \\      /  F ield         | OpenFOAM: The Open Source CFD Toolbox
   \\    /   O peration     | Website:  https://openfoam.org
    \\  /    A nd           | Version:  11
     \\/     M anipulation  |
\*---------------------------------------------------------------------------*/
FoamFile
{
    format      ascii;
    class       surfaceScalarField;
    location    "60";
    object      phi;
}
// * * * * * * * * * * * * * * * * * * * * * * * * * * * * * * * * * * * * * //

dimensions      [0 3 -1 0 0 0 0];

internalField   nonuniform List<scalar> 
37779
(
0.125202
-0.212378
-0.0196318
0.106839
-0.0236253
0.0330416
-0.0157035
0.00625592
-0.0180785
0.0186577
-0.0657554
0.0652298
-0.0373271
0.00903406
0.0316297
-0.00331016
-0.0147079
0.0135073
-0.0224558
0.0632412
-0.0356555
-0.0169607
-0.010612
0.0161803
0.000972766
-0.00679581
-0.0103354
0.000570527
-0.00126617
-0.0211973
0.0219001
0.0401574
-0.00676639
-0.000427785
-0.0329607
0.00283101
0.010324
0.00110721
-0.0142603
-0.00476298
-0.0665181
0.0683925
0.00289096
0.0111873
-0.0169825
-0.00201806
0.00780753
0.00081
0.00803711
0.116427
0.0581878
0.0386804
-0.136866
0.0401127
-0.0302101
0.00648403
-0.00981953
0.0335149
0.0158322
0.0568844
0.0190589
0.0694018
-0.0655195
-0.0228881
0.0092969
-0.00280814
-0.0254753
0.018992
-0.0300139
0.0912218
-0.0463964
-0.014831
0.00236256
0.0394922
-0.0124573
-0.029385
-0.0108205
-0.000551118
-0.0272764
0.0386369
-0.00687158
-0.0516179
0.0212339
0.0372616
0.238043
-0.0136899
-0.0750779
-0.149253
-0.0560354
-0.0594402
0.0678715
0.0476064
0.00302812
0.0302263
-0.0298086
-0.0209949
0.0381283
0.012676
-0.00815729
0.0113226
0.013035
-0.00215088
-0.0019392
7.79815e-05
0.00401494
-0.00520656
-3.80739e-05
0.00309566
-0.00273143
-0.00127782
0.00206865
-0.0168791
0.0339713
0.0233482
-0.00318463
-0.00475245
-0.0301329
-0.00181919
-0.00327047
0.0352508
0.00440714
-0.0110578
0.00347034
-0.0151003
-0.0673941
0.103293
-0.0208062
0.0387947
-0.0300199
0.0162934
-0.0250667
-0.0357108
-0.00510759
-0.0107996
0.0353737
0.0339604
-0.0293547
-0.0399876
-6.48765e-05
0.0100359
-0.00974283
-0.000313144
0.0258546
0.00214006
0.0108109
-0.0117621
0.0365666
-0.0224363
-0.136288
0.0649447
0.030248
0.0411484
-0.0178086
0.012877
0.0267364
-0.0218439
-0.0131237
-0.0105418
0.00907457
0.0146214
-0.050986
0.0527385
0.00958088
-0.011262
0.00401184
-0.0541584
0.0323297
0.0160496
-0.0303163
0.0137034
0.000579448
0.0129945
0.0091651
-0.0122553
-0.00988818
-0.00113267
0.00219258
0.00611577
0.00101536
0.00188673
-0.00403606
0.02901
-0.0106729
0.000976251
-0.0192795
0.157213
-0.250678
0.12096
-0.0275279
-0.00615213
0.0359698
0.0090759
-0.0389208
-0.0243378
0.0168384
0.00126767
-0.015523
0.0412094
-0.0505694
-0.0360631
0.0717662
0.014872
0.00315475
0.00946534
-0.00331983
-0.0100641
0.00528478
0.0306583
0.0189712
0.0286148
-0.0248403
-0.0227243
0.00803032
0.00420068
-0.0062017
-0.00603693
-0.0400609
0.0357225
0.00979212
-0.00543422
0.0295023
-0.0104114
-0.0265335
0.00741961
0.0132026
-0.0110331
-0.0186499
-0.0358192
0.0636556
-0.00918887
0.0383818
-0.0386325
-0.0304367
0.0306834
0.0176475
-0.0100856
0.0130657
-0.020611
-0.0249767
-0.0200688
0.0504193
-0.00537579
0.00774915
-0.0210349
0.00323186
0.0433609
-0.0493049
-0.0210053
0.0269602
0.0290341
-0.0382205
0.00545033
0.00373204
0.0457779
0.0195049
-0.0299072
0.0219356
-0.031451
0.0104468
-0.000917797
0.00766188
0.00240536
-0.0275805
0.0174718
0.0144602
0.0634956
-0.033486
-0.0444712
0.0663469
-0.035819
-0.0445925
0.0140624
-0.0191835
0.0176438
0.0184218
-0.01689
-0.0297072
0.0155467
-0.00502294
-0.0262271
0.0423446
-0.00555577
-0.010555
0.0300012
0.0178289
-0.0135127
0.0627037
0.119368
-0.137396
-0.0446458
-0.139198
0.0413165
0.0782682
-0.00589937
0.0339435
-0.0120777
-0.0159755
-0.0308125
0.0208563
0.0189659
-0.00903096
-0.0441412
-0.170485
0.0935852
0.017632
-0.060126
0.0453912
-0.00289564
0.0111993
-0.0162156
-0.0157879
0.0208017
0.0626259
-0.066235
0.00617983
-0.00257461
-0.0409248
0.00745792
0.0363028
-0.0923618
-0.0759089
0.113121
-0.0228099
0.0141383
0.0279991
-0.0193226
-0.118306
0.0613001
0.070989
-0.0139815
-0.0300211
0.155287
-0.0482209
-0.0770175
0.0894869
-0.0388998
-0.0122347
0.017278
-0.015237
0.00530244
-0.00732804
-0.0462868
0.0688075
0.033693
-0.0562253
-0.0901887
-0.00470373
0.00314667
0.0216289
-0.0201021
-0.0224521
-0.0185989
0.0230658
0.0790889
-0.038489
-0.0261291
0.0591641
0.0760085
0.0480803
-0.183229
0.00393527
-0.0437233
0.00883777
0.0309626
-0.0142369
0.00469324
0.00937519
0.0322025
0.0769512
-0.0459058
-0.0192498
0.110109
-0.0316466
-0.00598082
0.0131114
-0.0149849
0.0079813
-0.0230239
-0.0117111
0.0301894
0.00454202
-0.0307747
0.13749
-0.0562884
-0.0910313
0.0904268
0.0588268
-0.0863853
-0.0356869
0.0879786
-0.0100869
0.0267794
0.00395737
-0.0206543
0.0185913
0.00819677
0.00908093
-0.0358942
0.023788
-0.0448548
-0.00466173
0.0257108
0.015513
-0.00156874
0.00800298
-0.0162615
0.0304368
-0.0092046
-0.00495692
0.0294331
-0.0139736
-0.0316888
0.11763
0.0786284
-0.0768557
-0.0393753
0.12037
-0.0505457
0.0290723
-0.0389738
0.060039
-0.0435748
0.0789315
0.0102217
-0.0114585
0.001286
0.0141476
0.00453769
0.00343057
-0.00726768
-0.000703311
-0.00822121
0.0261598
-0.000430852
-0.0130847
0.0169448
-0.00343781
0.012476
0.0279223
-0.0369719
0.00259633
-0.0561939
-0.00243988
-0.000554012
0.0323072
-0.00147716
-0.0302858
-0.0185527
0.0595924
0.011601
-0.0526342
0.0161342
-0.00834771
-0.0127998
0.00501092
0.0693839
-0.00469531
-0.044195
0.00949699
0.00351861
-0.0105137
-0.00315601
-0.0213424
-0.0264304
0.0319919
-0.0416278
0.0491162
-0.0395013
-0.00708121
-0.0252695
-0.00331006
0.00540937
-0.00505552
-0.00437644
0.00401501
-0.061214
0.0225565
0.0758989
-0.0372304
0.0118297
-0.0252523
0.00640225
0.00705845
-0.0166989
0.00641331
0.0272478
-0.0656028
0.0524769
-0.0141393
-0.00309518
0.00305906
-0.00416791
0.00420438
-0.0161314
0.00202214
0.0110139
0.113352
-0.00898821
-0.103035
-0.0013249
-0.000112367
0.0212881
-0.0500901
0.0288929
-0.0185648
0.00529745
0.010814
0.00248016
0.0285245
-0.0502522
-0.00448593
-0.0412321
0.0524678
-0.00978244
-0.00144692
-0.00311798
-0.00712284
0.0176464
-0.00746285
-0.0085068
0.0103699
0.00931681
-0.0111825
-0.0192559
0.0104076
0.000341882
0.00864651
0.00800901
0.0462983
-0.0662613
-0.00539953
0.0253632
-0.0126605
-0.0490719
0.0367537
-0.032228
0.00707737
0.0843466
0.0146398
-0.0542962
0.0394711
0.00160888
-0.00283302
-0.00459676
0.00582025
-0.00658203
0.0126504
-0.00445792
-0.0127099
0.00829638
-0.0549986
0.059412
-0.0501645
0.00977187
0.00554896
0.0348305
0.0187543
-0.00836801
-0.0139923
0.00357466
-0.012164
0.0147053
0.00121885
-0.00440115
0.0281216
-0.0342928
-0.0248484
0.0310132
0.0525512
0.0191241
-0.00535402
0.00222349
0.00418747
-0.00324177
-0.00316721
0.00351816
-0.00186213
0.000568116
-0.0361166
-0.136149
-0.000939534
-0.00101849
0.00615155
0.00738729
0.00390953
-0.00777701
-0.00362175
-0.0412981
0.036013
0.00894301
0.00564474
0.000803819
0.000925069
-0.000248582
0.00428425
-0.00496021
0.00205916
-0.00456288
-0.0139607
0.0164425
0.00216798
-0.00743129
-0.00835485
-0.00648488
0.0025374
0.00611605
0.002142
-0.0101517
0.00152492
0.0412156
-0.0359487
-0.0158532
0.0105933
-0.0156007
-0.0115444
-0.0322989
-0.041145
-0.0280672
0.030631
-0.122404
0.0245985
0.00144088
0.0963613
-0.0164338
-0.0113441
0.00850399
0.0648578
0.023758
-0.0824516
-0.00615688
0.0614581
-0.00716342
-0.0121941
-0.0420938
0.00770673
-0.147221
0.109345
-0.0691003
0.037481
0.0192213
0.00392749
0.0127718
-0.000648576
-0.0403408
0.0413596
-0.00119792
0.000183886
0.201941
-0.0499912
-0.0886123
-0.0633238
0.0126605
0.00938959
-0.00751495
-0.0145128
-0.0173322
-0.0186118
0.00139294
0.0345465
-0.00999043
0.0121524
0.00461175
0.00116584
-0.0366023
0.00719777
-0.012322
-0.0151044
0.0202394
-0.0311699
0.0212348
0.0486832
-0.00954515
-0.00313378
-0.00965469
0.0223355
0.0506508
-0.0211299
-0.0393467
0.00983798
0.0264204
-0.0202442
0.0352553
-0.0413874
-0.000182538
-0.00859977
0.0199801
0.0224716
-0.0314687
0.00471704
0.00427951
-0.045098
0.0319608
0.0107047
0.00245921
0.00893192
0.00950612
0.00403333
0.0125248
-0.00236242
-0.00226627
-0.00789838
-0.0280962
0.00290057
0.005408
0.0197774
0.00746802
0.00269045
-0.00261244
0.00590747
-0.00598427
0.00358031
-0.0032532
0.0218974
-0.000732198
-0.0122313
0.0118183
-0.0634593
0.0253285
0.0262926
-0.019108
-0.00934397
-0.00577135
0.034223
0.0024184
-0.0114781
0.0287672
-0.0198447
-0.20689
-0.0639811
0.166744
0.0435675
0.0806845
-0.0881137
-0.0361231
0.0118189
0.0215316
-0.0507244
0.0173796
-0.00310587
-0.0015959
0.00894966
-0.00424354
0.0418227
-0.00944465
0.0353481
0.00564899
-0.0220174
-0.130114
0.0229176
0.045005
0.0622204
0.00244871
0.0231232
-0.0276551
0.00210948
-0.0533689
0.111923
-0.0303462
-0.0282258
-0.0241161
-0.024162
0.0354849
0.0128536
0.0111674
-0.0568606
-0.0155147
0.00735344
0.0254127
0.0130827
-0.0458437
-0.108201
0.0964063
0.0143916
0.0152287
-0.0227585
-0.0197035
0.0272244
-0.0161566
0.0420325
0.0199081
0.0195911
-0.031283
0.00754432
0.00414735
0.0324294
-0.0118751
-0.000964249
-0.0192453
0.00614694
0.0149651
-0.00851634
-0.00688277
0.000431474
0.0250249
0.0112681
-0.00386278
0.00801939
-0.0611745
0.0643566
-0.0111952
-0.0510114
-0.0277103
0.0465659
-0.0551815
0.0438757
-0.0471407
-0.000443068
0.0177755
-0.0121404
-0.0112299
0.0330847
-0.00971575
0.00864203
-0.0131368
0.00316121
0.00133121
0.0236011
-0.0443221
-0.0329785
-0.0232149
0.0365171
-0.000813481
-0.0124838
0.0264891
0.00575391
-0.00624682
-0.000902292
-0.00599269
0.000809323
-0.0141404
0.00708565
0.0514679
0.0124841
-0.0205794
-0.0844623
0.0188774
0.0729463
0.0577609
0.0279469
-0.00926496
-0.0764358
-0.0201574
-0.000579623
0.00210276
0.0186385
0.0131475
-0.00906436
0.0200187
-0.0240463
0.147001
0.0140804
-0.161492
-0.0032998
0.00298521
0.0518398
-0.0515211
-0.0110652
-0.0495504
0.0365381
0.0240796
0.0679495
0.00826622
0.00126642
-0.0222668
0.0127225
0.00883058
-0.00586822
0.00528634
0.0169225
0.01446
0.00565827
0.000169441
-0.00313346
-0.0027219
0.0133355
-0.00805191
-0.0239156
0.0186403
-0.011468
-0.0194472
0.00810762
0.00130034
-0.000622376
-0.00132168
0.000644363
-3.12749e-05
0.00347948
-0.0501727
-0.0432436
0.00104172
-0.00208058
-0.0168119
0.00549495
0.0134417
0.012488
-0.0143968
-0.0212867
-0.0751819
0.131207
-0.0489332
-0.019706
0.043776
0.00918415
-0.00225288
-0.0081873
-0.00157832
-0.0143679
0.00238155
0.0135671
-0.00438677
0.015765
0.00414286
0.019089
-0.00550808
0.00787713
-0.0214491
-0.0491885
-0.0305506
0.0659847
0.0137938
0.055451
-0.0921143
0.0629624
-0.0261918
0.0317546
-0.0140947
-0.0420243
0.0244747
0.0180706
-0.0158039
0.0129605
0.0635452
0.017746
-0.0466632
-0.03462
0.00431187
0.0270132
-0.0170421
-0.0142969
-0.165457
-0.00228988
0.053039
0.114693
0.000256314
0.0152411
-0.0121726
-0.00329726
-0.0719173
0.0561717
0.0109826
-0.0230617
0.0240124
-0.0186009
0.0176508
-0.0354954
0.0222741
0.00312995
0.0297827
-0.0312003
-0.00724446
0.00871278
-0.00441244
-0.00280713
0.0353492
-0.0281255
0.0331287
-0.0481203
0.0616436
-0.0466603
-0.0240032
0.0603069
-0.0226789
-0.0136386
0.0887598
-0.0578594
0.0114064
-0.0423312
0.011251
-0.0213715
0.0195032
-0.0093834
0.0248148
0.00681987
-0.0256324
-0.00600451
0.0826309
-0.0948615
-0.111319
-0.0721525
0.0290908
0.0176652
0.0253859
-0.00153997
0.0120344
-0.0128368
0.00235492
-0.000830662
-0.00286846
0.000492127
0.00320705
-0.00532141
-0.0146033
0.0183845
0.00395083
0.000529006
-0.00530897
-0.0046333
0.00468065
0.022085
-0.0221199
0.103843
-0.0741651
-0.0447786
-0.0538659
-0.0987019
0.016296
-0.0114708
0.0399692
-0.0471588
0.0384264
0.0340113
-0.0146705
0.035854
-0.0499956
0.010523
-0.0134966
-0.00156295
0.0182118
0.038508
-0.0153962
-0.0156494
-0.00746521
-0.00967194
0.0150593
0.0331191
0.00655034
-0.000816963
-0.0118558
0.00613146
0.00494798
-0.0114458
-0.0084446
-0.0086492
0.0146958
0.00238768
-0.0082366
-0.0127303
0.0125211
0.0101509
-0.0269499
-0.00230689
0.00957104
-0.00423706
0.00121331
-0.00176198
-0.00502864
-0.0113875
0.00101779
0.00271507
0.00306683
-0.00659916
-0.029105
0.0090186
-0.0255381
-0.0151728
0.0250575
-0.0128987
-0.017669
0.0346881
0.00105451
-0.0325389
-0.00318353
0.00772332
0.00142495
-0.00647873
-0.00267212
-0.00868068
0.00656677
0.00983493
0.0189994
0.022992
-0.00946674
0.159761
-0.00529935
-0.173854
0.0193668
-0.013059
0.0139665
-0.0222863
0.0213842
0.00170765
5.20681e-05
0.0088929
-0.000120444
0.0188462
0.0256582
-0.0443565
-0.0188758
-0.0174605
0.0301594
-0.0274051
-0.0162388
-0.00652221
-0.0122154
0.0314722
-0.00639855
-0.0116615
0.0465249
-0.0688454
0.0576954
-0.0458443
-0.0371328
0.0162359
0.0185931
-0.024611
-0.0102031
-0.0251056
-0.00482558
0.0342496
-0.0263254
-0.00140529
-0.00651328
0.0342489
6.93512e-05
-0.0382045
-0.0126468
0.0507384
0.0153763
0.00806739
-0.00739869
-0.00375089
0.00201811
-0.000910272
0.00263445
-0.125529
0.181504
0.0302087
-0.0317004
0.0143657
-0.021481
0.0206804
0.00674858
-0.0059612
0.00172974
0.00162017
-0.0217875
0.0184416
0.0526749
0.0113144
-0.038191
-0.025824
-0.0398704
-0.0575402
0.00979542
-0.0286131
0.0646024
-0.0457596
-8.14041e-05
0.00373552
-0.0110148
-0.0666189
-0.0387951
-0.016976
-0.0821179
0.0687789
0.126669
0.00333029
0.00133429
-0.00644573
0.00182119
0.0626512
-0.0423936
-0.0261562
-0.0409611
-0.04661
0.0780857
0.00948621
0.00894925
-0.0419031
0.0412171
-0.00826621
0.00783631
0.0224385
-0.0213381
-0.0312091
0.0271608
0.00352267
0.0473291
-0.0115553
0.00679136
2.47411e-05
0.0357379
-0.00803149
-0.0316912
-0.00792492
0.0420714
-0.00843744
-0.0175331
0.0174493
0.00850767
0.000700198
0.00391735
-0.00279736
-0.00183017
0.00197473
-0.000422843
-0.00085349
-0.00256365
0.00641817
-0.0251259
-0.0173436
0.0190597
0.0234188
0.0267923
-0.0235308
0.0259085
-0.0291818
0.0233675
-0.0309655
-0.0267236
0.0343112
-0.0072486
0.0111153
0.0242524
-0.0282491
-0.025379
0.0283892
0.0252486
-0.000430352
0.00785931
-0.0216909
-0.0115409
0.000658664
-0.00221966
0.00600741
-0.00186201
0.00852618
-0.0457853
0.137623
0.129361
0.00757051
-0.155171
0.018258
-0.00148717
0.00570788
-0.107694
0.00515865
0.0217129
0.0808233
-0.0407028
-0.00308793
0.0222928
-0.105756
0.0208063
0.0679662
-0.00883002
-0.0162704
-0.00634501
0.0220492
-0.0362226
0.0101286
0.0040609
-0.00873284
0.0168664
-0.0332007
0.0311233
-0.0244405
-0.0103404
0.00365536
0.0750535
0.0481701
0.0135025
-0.144097
0.0824263
0.227475
0.0767035
0.0276355
-0.0483929
0.039071
-0.0183127
0.113207
-0.084457
0.00323494
0.00653964
0.00773029
-0.0305587
0.0162766
0.0540922
-0.100472
-0.0161287
0.0625008
-0.05075
-0.0141712
0.0350293
0.0769342
-0.0673181
0.0230237
0.107998
0.0580104
0.0319394
-0.0262126
-0.0637325
0.0291499
-0.180957
0.0513461
0.0143467
-0.0337146
0.0150635
0.00430548
-0.018775
-0.000120535
-0.00272123
0.0216166
0.00520843
-0.0142244
0.00057407
-0.0216151
0.0213527
0.00919311
-0.00894315
-0.0106099
-0.000276271
0.000738737
0.0101408
-0.0126662
0.00645885
0.0401143
-0.0312736
0.00550224
-0.00872191
0.0224281
-0.0474092
-0.0426393
-0.0058441
0.0397069
0.0193906
0.0441972
-0.00275179
0.0273803
0.00460514
-0.0289857
0.0945681
0.014428
0.00748619
0.0554691
-0.0461781
-0.0168178
0.0110558
0.0494886
-0.00518506
-0.0553572
0.00250227
0.0153153
-0.0139233
0.0877705
-0.04436
-0.0718795
0.0284667
-0.0893083
0.0901468
-0.0217342
-0.0373433
0.0482206
-0.0285742
0.0302179
-0.027967
-0.00365009
-9.46088e-05
-0.00327815
0.00701887
0.00763743
-0.000720662
-0.00440101
-0.00251009
-0.00524637
0.00390362
-0.00790805
0.0092535
7.2769e-05
0.00128165
-0.00220365
0.000850681
-0.00707173
-0.00370575
-0.0104425
0.0212206
-0.140941
0.000585192
0.0932693
-0.0342988
-0.0118214
0.0936134
-0.0474821
0.0240849
-0.0764909
0.039205
0.0131795
-0.0066968
0.0077303
-0.0187811
0.0177532
-0.000656084
-0.000190129
0.00116432
-0.000320751
-0.000859655
-0.00123009
0.000628091
0.00144005
-0.00374968
-0.000916835
0.00179447
0.00286966
-0.0730243
0.072771
0.0483743
-0.0481153
0.0028111
0.000573778
0.00993318
-0.0133242
0.00179309
-0.0039919
-0.00397231
0.00617567
-0.00324777
0.0301187
-0.00308534
0.00455653
-0.0120738
-0.00520761
0.00317297
-0.00333482
-0.00184543
0.00200303
-0.000837478
-0.00651247
0.00360049
0.00268706
-0.00142889
-0.00424173
0.0029891
0.00217937
0.00200993
-0.000276244
-0.000278839
-0.0046951
0.00469225
0.000276664
-0.055348
0.0336798
0.0503016
-0.0257226
-0.0243429
0.021958
0.0127248
0.00162209
-0.0197989
0.00545239
0.0107878
0.015076
-0.0131381
0.00208357
0.00965425
-0.0203283
0.00859299
-0.0178722
0.045075
-0.0178667
-0.00932096
0.00530357
-0.0558983
0.0327003
0.0179037
0.131532
-0.139128
0.0557694
0.0300052
-0.0121226
0.033284
-0.0511149
0.0779571
0.0791605
-0.0265401
0.0821306
0.000947018
-0.00509638
-0.0696138
0.0338295
0.114944
0.0455288
-0.0330126
0.0419919
0.000798097
-0.00895895
0.0652051
-0.0212441
-0.0149387
0.0290843
0.0232704
-0.00350361
0.0024707
-0.0222448
-0.0221942
-0.0118785
-0.0960235
0.0748546
0.0314397
-0.081698
-0.0247494
0.044701
0.0263519
-0.00110207
-0.00520321
0.00309178
0.044243
-0.00218905
-0.0438964
0.00180023
0.0657017
-0.0355306
-0.0733841
0.0432987
0.0347971
0.00110946
-0.0364652
-0.174985
0.0573263
-0.02887
0.146534
0.0302689
-0.0188996
-0.0232576
0.0118804
-0.00133884
-0.00793771
-0.00105523
0.0103468
0.0223594
-0.0112619
-0.0124365
-0.0341708
-0.00126273
0.028446
0.00699174
-0.0333376
-0.00373034
0.0213592
0.0157437
-0.0436937
-0.0281025
0.0895903
-0.0639456
-0.00354117
-0.0221134
0.0631927
0.0315952
0.0426963
0.0129522
0.0201536
-0.0173734
-0.0157243
-0.00636968
0.0213397
0.00427301
-0.034085
0.00678346
0.0525164
-0.0375758
-0.0336408
0.0187021
-0.0522962
0.0771237
0.0145771
-0.101311
0.0585689
0.0281638
-0.0676871
0.0372344
0.0537231
-0.0231085
-0.0362325
0.013232
-0.0151122
-0.0453245
-0.0218251
-0.036135
0.0217312
-0.0161545
0.0302351
0.00470548
-0.0188019
0.0145714
0.0103756
-0.014342
-0.0106466
-0.00563414
0.00737289
-0.0179022
0.0238098
-0.021733
0.0101109
-0.0199649
0.00421835
-0.00279071
-0.0107295
-0.00665855
-0.00144076
-0.0206641
0.0317618
-0.00963956
-0.036817
0.0380663
0.0243832
-0.0256201
-0.000858081
-0.00264336
4.7045e-05
0.00344043
0.00716136
-0.00155494
-0.00644075
0.000842046
0.0247
0.00891578
-0.020427
0.00524433
0.00592737
-0.00400858
0.00839286
0.00714075
0.0044715
-0.0200586
0.0587755
-0.0152511
-0.000589265
0.0099102
-0.119798
0.0376273
-0.0505324
0.00365122
-0.132484
0.00903319
-0.0413768
0.0847253
-0.0057217
-0.0528161
0.0150971
-0.00356163
0.0262429
-0.0252538
0.00258242
0.032261
-0.0886404
0.0313017
0.00711226
-0.00978555
-0.0943504
-0.0649656
-0.205849
0.365178
-0.024579
0.0645151
-0.0274528
-0.0152188
0.0113859
0.065393
-0.0615626
-0.00201818
-0.0312844
0.048988
-0.015694
0.0126081
0.0294848
-0.0102658
0.0231343
0.0123213
-0.0447784
0.0337241
0.0288457
-0.0285608
-0.0340529
-0.00971934
-0.00590481
0.0142005
-0.0629162
0.125906
-0.036003
-0.0189755
0.0236945
-0.0895441
0.0356511
0.0661172
-0.012219
-0.000478559
0.0141981
-0.013268
-0.000454994
0.000533989
0.0105486
-0.0115633
0.022006
-0.00328738
-0.0261992
0.0204424
-0.00331909
0.00904921
0.0229033
0.00405218
-0.0129811
0.0489242
-0.030486
0.0346489
-0.169503
-0.073437
0.0140691
0.000222914
0.0184888
-0.0328337
-0.137792
-0.0317137
0.124039
0.0454724
-0.041596
0.0571921
-0.0063613
-0.0108499
0.0072807
0.00992901
0.00964328
-0.0231958
0.00719157
0.0291288
0.0317865
-0.023844
0.00170065
0.0375975
0.00234545
-0.0171415
-0.0228325
-0.0794751
0.128297
0.000102297
-0.0101521
0.00654723
-0.00170249
0.0254925
0.00296002
-0.0377304
0.00927872
0.0507156
-0.073871
-0.00733087
-0.0174086
0.00925146
-0.00983239
0.01802
-0.00368962
0.0193182
-0.019473
0.00383322
-0.0102039
0.026394
0.0632138
-0.00774842
-0.00895267
-0.0465138
-0.0571211
0.0283619
0.0338585
-0.0528602
0.00655782
-0.0114184
0.00438089
-0.0581799
-0.051037
0.0520962
0.012303
-0.012581
-0.00422332
0.00450154
-0.0115965
0.0114248
-0.00156138
0.00173291
-0.00156272
-0.00268928
0.0117143
0.00475561
-0.00416663
0.0239829
-0.0383324
-0.0390416
-0.0116707
0.0228379
0.00863294
-0.0293196
0.0301997
-0.00245008
-0.00414989
0.0164434
0.00882692
0.0198965
0.00038463
-0.0137854
-0.00649561
-0.00327205
0.00787776
-0.00238758
-0.00221966
0.006076
-0.00122892
-0.00167598
-0.016643
0.00944087
0.0158381
-0.0086273
-0.00408749
0.0193371
0.00349488
-0.00162201
0.0122603
-0.0089045
-0.00176874
0.00526352
0.000706138
-0.00179739
-0.0041827
0.0127597
-0.0383356
0.0134507
-0.0256584
0.0217159
0.00605318
-0.00213163
0.00481378
-0.00505829
-0.0490597
0.0305649
0.0882911
-0.0292295
0.0608549
-0.00249617
0.0123459
-0.00668754
-0.00543195
-0.000243759
0.0405574
0.0942232
-0.10023
-0.0345562
0.0299857
-0.0213752
0.00576384
-0.0143673
0.0108834
0.0175568
-0.0142887
-0.0190676
0.00688704
0.1075
-0.0121268
-0.0301757
0.0909451
-0.0321665
-0.00366717
-0.0411594
0.0481345
-0.00330804
-0.0140282
-0.000174857
0.0105445
0.0107338
-0.0304069
0.0137022
-0.0169989
-0.00839243
0.0156364
0.00397183
-0.0112298
-0.00335775
-0.0624446
0.0482796
0.0175253
0.0154467
-0.0162996
-0.00230762
0.00315288
0.00680411
-0.00529408
-0.0124125
0.0109038
-0.023956
-0.0062985
0.0264978
-0.0540665
0.00106388
-0.0527544
-0.0343923
-0.0018249
-0.0143492
0.0151829
-0.0143771
0.0149223
-0.0155659
-0.0408797
0.0200199
0.0778401
-0.0569694
-0.106074
-0.103808
0.0854944
-0.0453965
0.0613953
0.0748505
-0.0908461
-0.0616729
-0.0401915
-0.00420812
-0.0342009
-0.0728669
0.0145215
0.0044911
-0.018355
-0.000653011
0.00197638
-0.0276488
-0.0239542
-0.0197937
0.00443927
0.0393482
0.00024606
0.00144458
-0.000802255
-0.000922397
0.00369816
-0.000566968
-0.00290634
0.0123618
-0.00833307
-0.00854437
0.00451452
0.0243995
-0.0265938
0.00906508
-0.00687467
-0.00192753
-0.00544151
0.0167779
-0.00428753
-0.00427193
-0.00290827
0.011483
0.0119923
-0.00886052
0.0144984
-0.0797179
0.22755
-0.242126
-0.0390917
0.0196301
-0.0242583
0.00427185
0.00142432
-0.00336619
-0.041775
-0.013451
-0.0303369
-9.89345e-05
-0.0113457
0.0697859
-0.0664297
-0.00238221
-0.0010109
-0.0271409
-0.0209026
-0.00713788
-0.0583184
0.0358755
0.0809025
-0.0584537
-0.0216074
0.0347588
0.0483126
0.00681259
0.0221021
0.0237543
-0.00294364
0.00120871
0.00811576
-0.0063795
-0.0118458
0.00494135
0.00396028
0.024767
-0.00482333
-0.0227493
-0.0257393
0.0105026
0.00718277
-0.00847926
0.00650791
-0.00521053
0.00380945
-0.00847273
-0.0333142
0.0760005
0.00372144
-0.0463902
0.00461725
0.0315839
-0.0547497
0.0148507
0.0251412
-0.00946796
-0.0305106
-0.00996241
0.0185592
-0.0120453
0.00340586
-0.00136279
-0.00618606
0.004335
0.003342
-0.0071905
0.0156566
0.00103542
-0.0095356
-0.0118712
0.000802903
0.00291789
0.0175392
0.00160847
-0.0263029
0.0191775
0.042551
0.0148889
-0.0766196
-0.0160941
-0.0211507
0.00226729
0.0349821
0.0139584
-0.00877122
-0.0417146
0.0365067
0.0226522
-0.00528184
-0.0189271
0.00155591
-0.0376945
0.0217756
0.0385734
0.0617979
-0.0551805
-0.011898
-0.00328161
0.0273867
0.00300649
-0.0223984
-0.00866102
0.0280483
0.113066
-0.0283103
0.0727827
0.0370031
0.0647986
-0.0133257
-0.0210578
-0.0304519
0.000271143
0.0341212
-0.00965001
-0.0247468
-0.00681278
0.000478206
0.00835743
0.00661374
-0.0254727
0.0403331
-0.0214853
-0.000516644
-0.0951651
0.042942
0.0527394
-0.0835842
-0.0377454
0.119838
0.0014906
-0.0560247
-0.0497238
0.0495641
0.0561899
-0.00437508
-0.104933
0.122872
0.00278412
0.00799662
-0.00146661
-0.00090884
0.0297004
0.0140244
-0.042787
-0.00557742
0.00108413
-0.00148259
-0.00719463
-0.00227219
0.0109408
-0.0341285
0.00543817
0.026368
-0.00679365
-0.00662673
-0.0533256
-0.00217202
0.0103472
-0.0593496
0.0421126
-0.0160658
-0.0572835
0.0833938
0.00332783
0.00272785
-0.000197682
-0.00115184
8.61732e-05
0.00125945
0.00158701
-0.00173922
-4.71036e-05
0.0722129
0.0257751
-0.00923881
0.0158361
-0.00654264
-0.000916596
0.0851612
-0.00810828
-0.0195031
-0.057548
-0.00344788
0.0244598
-0.0101236
0.054088
-0.0729306
0.024137
-0.0391102
-0.100291
0.0958841
0.0414056
-0.0427436
0.123972
-0.0642738
-0.044692
-0.0149293
-0.0685764
0.0502887
0.0175963
0.00069852
-0.00482032
0.0322179
0.0391113
-0.0232182
-0.0364381
0.0204749
0.0142635
-0.0187659
-0.000945558
0.00538321
-0.0217393
0.0437871
-0.00322141
-0.0188846
0.0110351
0.0447361
0.0202386
0.00229832
0.0155043
0.00656443
0.0375729
0.0141898
-0.0583202
0.0100725
-0.00565356
-0.00500874
0.000581114
0.00391974
-0.00729945
-0.00572931
0.00158939
-0.0262068
0.00776482
0.00124062
0.00906308
-0.000302349
-0.00519166
0.034954
0.0432841
-0.0182002
-0.119757
0.0946728
-0.00210034
-0.0212214
0.00722282
0.0161737
-0.0287322
0.0127562
-0.00290296
0.00718908
0.0188752
-0.0144744
-0.0267933
-0.0311429
0.00592493
-0.00764226
0.0328668
0.0743913
0.00144066
-0.0132086
0.0125966
0.0237369
-0.0247392
-0.0116018
-0.182858
-0.105547
0.0131968
-0.0120873
0.016898
-0.0179955
-0.0035965
-0.00238244
0.00289276
0.00308951
-0.00197071
-0.00136797
0.00848141
-0.005137
-0.0154654
0.00990248
0.0667422
-0.00997891
-0.0417653
-0.0149998
0.00911777
-0.000672079
-0.0164572
0.00797406
0.00149583
-0.00698469
0.0145942
0.0176389
0.00114616
-0.0312381
0.0125954
-0.0856735
0.0267868
-0.00109405
-0.000374979
-0.000643325
0.00211163
-0.000208524
-0.000628359
-0.000258475
0.00817283
0.00105053
-0.0176348
0.00122733
-0.00119933
0.00178833
-0.00181895
0.000398876
0.000454794
-0.00121319
-0.0023672
0.00235368
0.00122296
0.00245267
-0.00513243
0.00145772
-0.0325143
0.0085769
-0.00628074
-0.100191
0.0363484
0.0146756
-0.0333366
-0.0136703
0.0383116
0.00869582
0.00874948
0.00185495
-0.000278284
-0.0103143
0.00917699
-0.0022564
0.0018342
0.0121888
9.28845e-05
-0.0104246
0.0168124
-0.0271451
0.0195136
0.033554
-0.0507185
0.0170506
0.0111962
-0.0275699
-0.0146806
-0.0242538
-0.00358304
0.0202285
0.0076379
0.15524
-0.141554
-0.0233796
0.0256592
0.00124922
-0.00352999
-0.0202779
0.0344776
-0.00440446
0.013004
0.0243788
-0.00424158
-0.0330047
0.0691997
-0.0668455
-0.0356499
0.003944
0.0284049
0.0204856
-0.0276772
-0.0376859
0.0363787
-0.0216517
0.0177563
-0.0324219
0.00536858
-0.0374251
0.0115039
-0.0336118
-0.00838587
0.018465
-0.000822659
-0.00867173
-0.00893858
-0.0191635
0.0347504
0.00328541
0.0122318
0.0206157
0.0113883
0.00590593
0.00478342
-0.00738751
-0.086722
0.0349197
-0.0201156
-0.0939246
0.1456
-0.130381
-0.0369218
-0.071886
0.0421893
-0.00796788
-0.0512507
0.0507176
0.00849824
-0.00304952
-0.0320605
0.000807696
-0.0117202
0.0348836
-0.0550295
0.0318665
0.146566
0.0417374
-0.13987
0.0299923
0.0414679
-0.0674602
0.00227159
-0.0133242
-0.00198233
0.0130178
0.132966
0.248798
-0.235211
0.0651494
8.02443e-05
-0.0685176
-0.0483057
-0.0352754
0.0666556
0.0196355
0.00500239
-0.0174628
0.0964839
-0.0028625
-0.0518567
0.010458
0.0927284
-0.00658399
0.0569024
-0.0851575
0.0474268
0.0403489
0.00249143
-0.012748
-0.0301187
-0.0228444
0.0488024
0.0124707
-0.0163925
-0.010382
0.0345278
-0.00916319
0.0387367
0.033971
0.00847878
-0.00419171
-0.00331718
-0.0700771
0.0629679
-0.0044166
0.00102286
-0.0166931
-0.0209984
0.0102685
0.0274255
0.0833506
0.0398752
0.0335778
-0.0330784
-0.00736332
0.0068608
-0.0278672
0.0283646
0.00607224
0.0552328
-0.058794
-0.0498122
-0.000792268
0.0200671
-0.00530432
-0.0139548
-0.138206
0.0258246
-0.0427261
-0.00925925
0.0303583
0.0215725
-0.0328042
0.0516111
0.0461516
0.031489
0.0850842
-0.100686
-0.015903
-0.0138708
0.00256403
0.0108482
-0.00525756
-0.0217078
-0.00309753
0.0300829
-0.00937171
0.007292
-0.0111033
0.0131827
0.0134977
0.0148191
-0.00426089
-0.024155
0.0379613
0.00591054
-0.00428159
-0.0396238
0.0362462
0.0756036
0.00603451
-0.00157508
-0.0150037
0.0144581
-0.00175311
0.0229968
0.00564172
-0.00448655
-0.00374508
0.00259387
0.000671015
-0.00391083
-0.0035492
0.00680017
-0.0516953
0.0332997
0.0175011
-0.0352911
-0.00403987
-0.00551443
-0.00115796
-0.0281052
-0.00799869
0.0373263
0.0498253
-0.0425132
-0.0285078
0.00249193
0.00204824
-0.00148933
-0.00305012
0.00415304
0.0121424
-0.0817826
0.118983
-0.0258905
-0.046433
-0.0101788
-0.00430711
-0.0266053
0.0132039
-0.00648921
-0.0911749
-0.0304816
0.0484332
-0.0435706
0.025617
0.0254785
-0.00563238
-0.0371572
0.0173142
-0.0784642
0.0513619
0.0128723
0.0142344
0.0640866
-0.00794683
0.00213594
-0.0582704
0.0420902
-0.0738645
-0.00901058
0.0407749
-0.00429074
0.000282085
0.00560403
-0.00160646
0.0021235
-0.00830869
0.00431143
0.00961188
-0.0104667
0.00373492
0.00256422
0.00416737
0.00481699
-0.00202178
0.00123538
0.010124
0.00659634
0.0145247
-0.00238728
0.000208604
0.00341417
-0.000888531
0.00509765
-0.00886863
-0.0210971
0.0452235
0.0164982
-0.0340841
-0.0460584
-0.0117855
0.0304051
-0.00212128
0.00252278
0.0141409
0.00623761
-0.0228791
-0.0121041
0.00377684
0.00444035
0.00394433
0.0015447
0.000173399
-0.00440348
0.00268588
-0.0130139
0.019174
0.00149358
-0.0141762
-0.000601688
0.0133917
-0.0706095
-0.11085
0.108167
-0.0593481
0.01555
0.186845
-0.498615
0.220581
0.0912022
0.0118062
0.0612007
-0.0700246
0.015334
-0.0712867
-0.0234242
0.0793809
-0.0100118
0.0127984
-0.0807112
0.034577
0.106274
-0.0601205
-0.00685443
-0.0753731
0.0293138
0.0528777
-0.0015321
0.0137703
-0.00218336
0.0374636
-0.0300599
0.0522306
-0.0596247
0.000616209
0.0152642
-0.0310528
0.0151833
0.0661262
-0.00685125
0.00678465
-0.0660619
0.0221946
0.00155955
0.05323
-0.148507
0.235502
-0.0336076
-0.0533186
-0.0124784
-0.0260973
0.0157485
0.0228413
-0.0061115
-0.0660583
0.0875057
0.0126006
2.0937e-05
-0.0116155
-0.00113752
0.0398861
0.0279893
-0.0320112
-0.121259
-0.111895
0.0115375
-0.0176163
-0.025101
0.0654517
-0.0167707
-0.0360695
0.0244738
-0.0231795
0.0286481
-0.0299189
-0.0227784
0.0345036
0.0142946
-0.0260283
0.019044
-0.0133371
-0.0261549
0.0204536
-0.0305236
0.054144
-0.0140172
0.000103867
-0.00893553
0.0153875
-0.00654239
0.00494705
-0.00755957
0.00272366
-0.00656184
0.00786087
0.00344119
-0.00963797
-0.000361696
-0.00390248
0.0103104
-0.00516847
-0.00523815
0.00848394
0.0139943
-0.00708254
0.0964072
-0.0259093
-0.0115471
0.00363503
0.0502545
-0.0690113
0.0204698
0.029395
-0.0379476
0.0414302
0.00453253
0.0103773
-0.00105328
-0.0121213
0.0027661
-0.0219166
0.0335873
-0.0535042
-0.00387114
0.00551801
-0.00365877
-0.0867724
0.0101402
0.0468598
-0.00994976
0.004632
0.0207686