/*--------------------------------*- C++ -*----------------------------------*\
  =========                 |
  \\      /  F ield         | OpenFOAM: The Open Source CFD Toolbox
   \\    /   O peration     | Website:  https://openfoam.org
    \\  /    A nd           | Version:  11
     \\/     M anipulation  |
\*---------------------------------------------------------------------------*/
FoamFile
{
    format      ascii;
    class       volVectorField;
    location    "60";
    object      U;
}
// * * * * * * * * * * * * * * * * * * * * * * * * * * * * * * * * * * * * * //

dimensions      [0 1 -1 0 0 0 0];

internalField   nonuniform List<vector> 
20983
(
(0.0638094 0.0164843 0.188483)
(0.0268267 0.0328111 -0.0165736)
(0.0269407 0.0846233 -0.0400888)
(-0.0199785 0.046877 -0.0110075)
(0.0267498 0.0441261 -0.00218449)
(-0.0167043 0.020418 -0.0314761)
(0.0108422 0.032523 0.000466213)
(-0.0127551 -0.0335616 -0.0304363)
(-0.0437289 -0.00848773 0.00656259)
(-0.0253507 0.0514732 0.0432483)
(-0.0446881 0.0447386 0.109311)
(-0.020133 0.030097 0.0770313)
(0.0605759 0.0220247 0.179258)
(0.0309558 0.0114236 0.0938891)
(-0.0297485 -0.00288802 -0.03645)
(-0.027897 0.0247116 0.506755)
(0.0461989 0.135682 0.0323241)
(0.0122545 -0.000708354 0.0344522)
(-0.0215661 0.0457972 -0.0420494)
(-0.0202122 0.0393918 -0.00324224)
(0.0343215 0.0218318 0.0319308)
(-0.0349433 -0.0114241 -0.000405094)
(0.0485854 0.0198291 0.193109)
(-0.00707762 0.0188918 0.0577145)
(-0.0372846 -0.0133789 0.00123513)
(-0.0457599 -0.01168 0.02321)
(0.0222292 0.0207872 0.00492467)
(-0.0352966 0.0648985 0.0103574)
(-0.0485388 0.039072 0.0154762)
(-0.0205056 0.0479821 0.0111345)
(0.0208392 -0.033664 0.345293)
(-0.0440792 0.0322445 0.00958279)
(0.109464 -0.00636314 -0.115871)
(-0.0225856 0.0351043 -0.000991152)
(-0.00969365 0.0582991 -0.0847775)
(-0.0227329 -0.0193263 -0.00738353)
(-0.0397527 -0.0149071 0.00741071)
(-0.0343002 0.0217881 -0.0286116)
(-0.0036811 0.00599281 -0.00632126)
(-0.0261236 -0.0120896 0.00152837)
(-0.0168096 0.0334069 0.0154649)
(0.0923104 0.0773796 0.0690566)
(0.0334851 0.0133102 -0.0521335)
(0.00357582 -0.0154922 -0.0286605)
(-0.0392171 -0.0213569 -0.0179473)
(0.0552721 0.0190309 -0.0610452)
(0.0039774 0.0110432 -0.0388327)
(-0.0112755 0.0205896 0.0235197)
(0.0703661 0.0274061 0.391387)
(-0.220863 0.0143956 -0.0294302)
(-0.0293997 -0.024419 0.0228131)
(0.0127081 0.0225276 0.219132)
(-0.00712914 0.02551 -0.00184382)
(-0.0192897 0.0335656 -0.264013)
(0.0705607 0.0266632 0.179665)
(-0.0626521 0.0302184 -0.00147422)
(0.0104543 0.00132637 0.0343963)
(-0.0258637 0.000243304 0.00435791)
(0.0205872 -0.000820179 -0.0341126)
(-0.0131032 0.00878443 0.0112296)
(-0.00515733 -0.0172804 -0.0562168)
(0.0250752 0.004269 -0.0302943)
(-0.0206063 0.045137 -0.00967362)
(-0.0407338 0.0495211 -0.0692108)
(-0.0145368 0.0698568 0.0111617)
(0.0183752 -0.0280259 0.0114908)
(0.0331532 -0.0925329 0.0259689)
(-0.0267128 -0.0182512 -0.00947405)
(-0.013382 -0.0620389 -0.0335166)
(-0.0158568 0.0172884 0.0417011)
(-0.0323436 0.0170692 -0.0402241)
(-0.0236271 0.00073537 0.0229321)
(0.0190127 0.0213024 0.0152832)
(-0.0305918 -0.0400251 -0.112684)
(0.0322944 0.0513834 -0.0248171)
(0.0779687 -0.296352 0.289798)
(0.124221 -0.413227 0.288072)
(-0.0358222 0.0416766 0.0448839)
(-0.000306689 -0.0602013 0.495191)
(0.0343348 0.00958225 0.160571)
(0.0455327 0.00654918 0.189097)
(-0.0364376 -0.0151185 0.00644995)
(-0.0275498 -0.00835091 -0.0484389)
(-0.650823 0.343901 -0.705881)
(0.00599484 -0.0812663 -0.0541113)
(-0.00970048 0.0232624 -0.0132654)
(0.00802561 -0.116668 0.00962328)
(0.0432463 -0.0442271 -0.125404)
(-0.0103222 -0.0955931 -0.236676)
(0.00277731 0.0198268 0.0353733)
(0.0360671 0.108384 -0.196485)
(0.53469 -0.113221 -0.0740839)
(-0.155231 0.00556848 -0.0077201)
(-0.00595684 0.0300424 -0.00548413)
(0.0699747 0.0652239 -0.180817)
(0.0450996 0.00615242 0.1922)
(-0.0328024 -0.0064377 0.302185)
(0.0149059 0.0496936 0.00407689)
(-0.0207857 -0.0339538 -0.0742034)
(0.0277663 0.00361185 0.258674)
(0.0513877 -0.0510171 0.0138226)
(0.0125525 0.0253574 -0.00377356)
(-0.033689 0.0154915 -0.0628056)
(-0.0362693 -0.00830172 0.345424)
(-0.00946633 -0.0148496 -0.00689018)
(-0.0432948 0.0130166 -0.0392409)
(-0.0125908 -0.00878679 0.254119)
(0.0435189 0.0134997 0.131542)
(0.0867265 0.150599 -0.328729)
(-0.00165289 0.0201497 0.030706)
(-0.0074186 0.0295684 0.0313105)
(-0.0247822 0.0413191 0.0227794)
(-0.024992 -0.00101825 0.0100405)
(0.138648 -0.195264 -0.0156593)
(0.0240535 -0.0963866 0.0545421)
(0.0311777 0.00376466 0.14342)
(-0.0633595 -0.292905 -0.126606)
(-0.150958 -0.139903 0.251358)
(0.158895 -0.767252 -0.891201)
(-0.325603 -0.577958 0.0984598)
(0.0277931 -0.0253449 0.0136622)
(0.0947854 0.0722241 0.0648521)
(0.102338 0.00540734 0.250667)
(0.158012 -0.106245 0.0937662)
(-0.0234764 0.0355946 0.0595688)
(-0.0115462 0.0205323 0.0647168)
(-0.01905 0.0288726 0.0398518)
(-0.0547965 0.0466982 0.0820385)
(-0.0313734 0.0146086 0.02572)
(-0.0214818 0.0385354 0.261458)
(-0.0444269 0.0299849 0.100692)
(-0.0391476 -0.0265684 -0.0176499)
(-0.0158772 0.042198 0.127465)
(-1.22577e-05 0.0369397 -0.0030012)
(-0.0169523 0.0152634 -0.022524)
(0.0536519 0.0315832 0.0498355)
(-0.0134693 0.0264982 0.00496919)
(0.0109703 -0.547225 -0.546139)
(-0.0816972 0.019309 0.0494543)
(0.00844855 0.0339862 0.187722)
(0.00734945 -0.0027966 0.436961)
(0.00570265 -0.0936205 -0.0102733)
(0.0571824 0.0350337 0.0553327)
(-0.0103808 -0.0309273 -0.0120971)
(-0.0327607 0.041082 0.0423359)
(-0.0100845 0.0299557 0.059085)
(-0.00102208 -0.00683189 -0.021856)
(0.154793 -0.158987 0.357391)
(0.213836 -0.204648 0.301729)
(0.0122115 -0.0894347 0.430989)
(0.113935 0.0263568 -0.170834)
(0.0154263 -0.109905 0.0101563)
(0.0190005 0.0141462 0.175891)
(0.0392003 0.0230539 0.0540434)
(-0.0642477 -0.032789 0.067738)
(-0.0686639 0.0151158 0.0826556)
(-0.0671596 -0.0268836 0.0416531)
(-0.0441338 0.013844 0.0295517)
(-0.0190391 -0.00166701 0.00181177)
(-0.0133931 0.0443803 0.0414942)
(0.0275621 -0.0114301 0.0224793)
(0.0314937 0.049716 -0.0284671)
(-0.0117692 0.0134631 0.0318402)
(-0.0206363 0.000924654 0.0387582)
(0.0766549 0.13371 -0.262567)
(-0.0105148 0.00137772 0.0320736)
(-0.0388642 -0.0127846 0.0447848)
(-0.00817175 -0.0372031 -0.0337822)
(-0.0380121 -0.0180548 0.0446007)
(-0.0443833 0.00217678 0.0358648)
(-0.022672 0.0145143 -0.0125242)
(-1.16627 -1.12511 -0.942539)
(-0.136496 -0.446156 0.0859173)
(0.24732 -0.121805 0.143008)
(-0.0557241 -0.0109128 -0.0468616)
(-0.00654252 0.0189876 0.0490502)
(-0.177653 -0.0302288 -0.436216)
(-0.0529016 -0.021858 0.0693744)
(-1.03305 -1.84596 -1.20148)
(-0.0536119 0.0121863 0.116821)
(0.011313 0.014728 0.0714523)
(0.135231 -0.00810468 -0.148129)
(-0.0282786 0.0414685 0.0931462)
(-0.0201837 0.0341152 0.0253604)
(-0.0170369 0.0200552 0.0491516)
(-0.163533 -0.0451815 -0.078751)
(-0.00254464 0.0400658 0.00897513)
(-0.0163692 0.0291188 0.0444513)
(-0.0438795 -0.0216767 -0.144046)
(-0.0240562 -0.00237706 -0.0388683)
(-0.0514179 -0.00233563 0.015227)
(0.00807334 0.0131252 0.0576284)
(-0.0252459 0.0205373 -0.00772403)
(0.0338696 0.0434307 -0.0329741)
(0.0331863 -0.00781752 -0.0410002)
(-0.0153736 0.0125889 -0.0348436)
(0.024139 0.0253374 0.360184)
(0.00998012 0.0316283 -0.0453221)
(0.020443 0.031265 0.346112)
(0.044162 0.0304399 0.110192)
(-0.0272563 0.0169838 0.00349714)
(0.0261219 0.000223559 0.372602)
(-0.0365492 0.0202915 0.119877)
(0.0294255 0.0736668 0.0601572)
(0.0239686 0.029213 0.166906)
(-0.00456272 0.0667621 -0.0198243)
(-0.0221579 0.0148955 0.0163724)
(0.00206353 0.0232889 -0.0168574)
(0.446196 0.0694504 -0.46415)
(-0.0526213 -0.0253956 0.0356622)
(-0.0284983 -0.0394735 -0.0486057)
(-0.0220217 -0.044992 0.0701658)
(0.0447162 -0.00225862 0.329783)
(0.012781 -0.000477522 -0.0426244)
(0.0672909 0.0330648 0.106057)
(-0.0306848 0.0109556 0.0295575)
(0.0360805 0.0884105 -0.0443126)
(-0.0296935 0.0314335 -0.0363449)
(0.0478834 0.0293533 0.0486798)
(0.0673491 0.0226303 -0.0421816)
(-0.022643 0.0510037 0.111307)
(-0.0123074 0.0319788 0.0324405)
(-0.0345547 0.0192734 -0.0420216)
(-0.0223088 -0.00856216 0.273672)
(-0.0497834 -0.00194113 0.207347)
(-0.0148506 -0.0310999 0.27678)
(-0.0476592 -0.0113475 0.0628409)
(-0.071707 0.0098745 0.168371)
(0.0407519 0.0720871 -0.101601)
(-0.0277644 0.0118441 0.0214497)
(-0.0163135 0.0185213 0.0485295)
(-0.0575966 -0.0152724 0.0345603)
(-0.0204254 0.0209461 -0.00529122)
(-0.0480488 0.0268966 0.139458)
(0.50526 0.638107 -0.511797)
(0.0279856 0.0127504 0.0180113)
(0.404078 0.192474 0.00276948)
(0.02497 0.0323724 0.143302)
(-0.0413484 0.0550409 0.0576933)
(-0.0149402 -0.0579085 -0.0126007)
(0.123807 0.119884 -0.163125)
(-0.0283205 0.0394921 -0.0785599)
(-0.023728 0.00782472 -0.00151747)
(-0.0273802 0.00827207 0.0216959)
(0.0122438 0.00236825 0.276911)
(-0.0449921 0.0281007 0.0352329)
(-0.0366634 -0.00719266 0.00811756)
(0.0410286 0.00585375 0.152333)
(-0.0980545 -0.0354978 0.367453)
(-0.0990832 -0.062411 0.138357)
(-0.0456989 -0.0328427 0.470223)
(-0.122214 -0.0646276 -0.119542)
(-0.167333 -0.0671841 -0.209995)
(-0.00180912 0.0140622 0.02938)
(0.00462481 0.0508007 0.0132446)
(-0.0155642 0.0409566 0.250827)
(0.0290736 -0.0653301 -0.0809957)
(0.00354166 -0.0181789 0.00887493)
(0.0457701 0.00709246 -0.00226425)
(0.0182669 -0.00202824 0.164982)
(-0.00370548 0.033618 -0.110027)
(-0.0479413 0.0651988 0.0200069)
(0.0138934 -0.0251782 -0.0223444)
(-0.0206657 -0.00239068 0.0012249)
(-0.0168979 0.0244919 0.0157342)
(-0.0790735 -0.00471642 0.00588008)
(-0.0563545 -0.0121826 -0.0317325)
(0.0129512 -0.0101128 -0.0367899)
(-0.00383577 0.030682 0.0171419)
(0.0649154 -0.00456032 -0.0306858)
(0.0444215 -0.000310443 0.00885347)
(0.0764767 0.104237 -0.115497)
(-0.0152928 -0.0110684 -0.00173564)
(-0.0284299 0.037931 0.0926878)
(0.0111289 -0.0385564 -0.00381517)
(-0.00579496 0.0225046 0.0375887)
(0.00642737 0.00801598 0.0340956)
(0.0405137 -0.063921 -0.0244166)
(-0.0201019 0.033658 0.08261)
(-0.0468889 -0.00720249 -0.100374)
(0.0223489 0.0595529 -0.016853)
(0.0539956 -0.0251216 0.106233)
(-0.0234879 -0.0427233 -0.0462641)
(-0.616702 0.150612 -0.400909)
(-0.0247334 0.0433222 -0.0559821)
(0.00333801 -0.0291871 -0.0150904)
(-0.0483431 -0.0388838 -0.0611607)
(-0.0225167 -0.0169567 -0.00984476)
(-0.0644807 -0.0446249 -0.0509726)
(-0.0248713 0.00757088 0.0293943)
(0.0077487 0.0511808 -0.118225)
(0.0886888 0.0506483 0.0513227)
(-0.0305273 0.0333839 -0.0553107)
(-0.025541 0.0262831 -0.0686606)
(-0.00810832 -0.0476855 -0.0402627)
(-0.00150357 0.0182951 -0.0169981)
(0.00551628 0.0336779 0.192338)
(-0.0141358 -0.00134044 0.166156)
(0.0466664 0.0203484 0.0709318)
(-0.0284131 -0.00864919 0.151693)
(0.0697733 0.0231935 -0.00228516)
(0.0451269 0.0344689 0.0600269)
(-0.028295 0.00937056 0.04386)
(0.0776662 0.00747531 0.0506823)
(0.0854453 0.0207699 -0.0671803)
(0.0241954 0.00355992 0.188091)
(0.046229 0.0138721 0.072927)
(0.0418378 0.0249084 0.0723683)
(0.0127511 0.0995488 0.284352)
(-0.00536284 0.0724318 0.32921)
(0.0559495 0.0677018 -0.0975779)
(-0.0282191 0.0182071 0.150112)
(-0.0382537 0.0824913 0.203334)
(-0.011739 -0.0205237 0.296176)
(0.0669388 0.0242912 0.146031)
(-0.00271306 0.0342054 -0.00690716)
(0.0462344 0.0242372 0.483664)
(-0.0263617 -0.0323937 -0.0364131)
(0.0121904 0.0453521 0.00918703)
(-0.0415716 0.00520213 0.0213998)
(0.0206352 0.00643233 -0.0523211)
(-0.0340106 -0.149839 -0.305846)
(0.0295985 0.004636 -0.213242)
(0.0125878 -0.0196063 -0.0169045)
(0.0116974 -0.0103144 0.0380146)
(0.000740207 0.0291945 0.0396646)
(0.0205506 0.0451361 -0.000417935)
(-0.0052932 0.00785583 -0.0414213)
(0.027994 -0.0208675 -0.0346332)
(0.00153287 -0.00675021 0.450339)
(-0.0138727 -0.00686919 0.394366)
(0.0141555 0.0204172 -0.0214427)
(-0.029577 0.0162574 0.0316952)
(-0.0253947 0.0132093 0.0269134)
(-0.0247486 0.0654739 -0.1017)
(0.0187545 0.0622609 0.0587735)
(0.739537 0.219098 -0.69109)
(-0.0502634 -0.0239743 0.0673755)
(1.34977e-05 -0.0727604 0.0831231)
(-0.214151 -0.388202 -0.347088)
(-0.0224266 -0.0075863 0.0407483)
(-0.0357247 0.0327535 0.12469)
(0.0788311 -0.162196 0.443955)
(0.0071251 -0.170399 0.186671)
(0.019098 -0.025803 0.43202)
(-0.0332306 -0.00892271 0.464455)
(0.162086 -0.0355813 0.0112595)
(0.00908876 0.00289435 0.034976)
(-0.0247183 0.0240905 0.0598537)
(-0.0160538 -0.0250393 0.0261084)
(0.0320774 -0.019913 0.0571191)
(-0.00166193 -0.0101566 -0.00609959)
(-0.0250774 0.00905882 0.133588)
(-0.0133138 -0.036665 -0.038642)
(0.0652086 0.00969114 -0.00732062)
(-0.000456732 -0.0194035 -0.0497415)
(0.0311109 -0.00785164 0.0158749)
(-0.00154718 0.00437607 0.0409439)
(0.0152149 0.031123 0.0101547)
(0.00728651 -0.0204306 -0.0406506)
(-0.0113102 0.0372343 -0.00107225)
(-0.208211 0.0423567 -0.453505)
(0.082497 0.0504496 0.0826144)
(-0.000331204 0.0268097 -0.00598344)
(-0.0692872 0.0114952 0.115757)
(0.0285411 0.0481684 0.00176136)
(-0.0237533 0.0273777 0.109751)
(-0.0260703 -0.0024426 0.0245864)
(-0.0121878 -0.0479933 -0.0492194)
(0.0060757 0.000238418 0.0392771)
(-0.0180206 0.02873 -0.0180994)
(-0.0081418 -0.00177643 0.228327)
(-0.0352848 0.0531638 0.120898)
(0.0130174 0.0124327 0.237868)
(-0.0370355 0.0464339 0.0869283)
(-0.0103984 0.053462 0.159103)
(-0.0295704 -0.024284 -0.00625064)
(0.32359 -0.0906455 0.00878482)
(0.238762 -0.164355 0.0463377)
(1.40971 -0.579552 -0.307061)
(0.934255 -0.139793 -0.0548273)
(-0.0166403 -0.018819 -0.0844562)
(0.3831 -0.119639 0.0460134)
(0.355443 -0.348532 0.014952)
(0.0789438 -0.365339 0.222826)
(-0.00897761 -0.0171007 0.0119469)
(-0.00971346 0.0380881 -0.0388416)
(0.0532783 0.141755 0.349427)
(-0.0144499 -0.293038 -0.393554)
(0.303428 -0.383432 0.0714837)
(0.338288 -0.533559 -0.0101425)
(0.165231 -0.481542 0.27326)
(-0.0135612 0.0513112 -0.0750406)
(-0.0362593 -0.0133607 -0.0237866)
(-0.0195193 0.00411865 0.167784)
(0.0489357 0.0327137 -0.0389283)
(-0.00279907 0.020019 0.0800673)
(-0.0228602 0.0164526 0.032562)
(0.0799208 0.0474718 0.0799504)
(0.0276524 -0.00391869 0.226799)
(0.0495078 0.0275363 0.0507407)
(0.00498012 0.0395555 0.0609621)
(-0.0868921 -0.101213 -0.160381)
(-0.0124579 -0.0017289 -0.0390308)
(0.158996 0.0423507 -0.0825272)
(-0.106252 -0.00849566 0.0960313)
(0.0134212 -0.0736401 -0.0962212)
(0.240549 0.153584 -0.465462)
(-0.018348 0.0320296 0.0568127)
(0.0566643 0.0194933 0.0542388)
(-0.00662124 0.0218518 0.0221941)
(-0.0565776 0.0707497 0.0230308)
(-0.085726 0.0236739 -0.00546839)
(-0.15399 0.0503959 -0.0377968)
(-0.0267691 0.114367 -0.102164)
(0.00499188 0.0329162 -0.0157462)
(0.14596 0.0517227 -0.061657)
(-0.0100892 0.125984 0.0961631)
(-0.0131967 -0.0382506 0.00201788)
(-0.0823967 -0.0328794 -0.164871)
(-0.142248 0.0427029 -0.0995608)
(-0.0380444 0.0307572 -0.0551488)
(0.0173859 -0.00823979 0.0405905)
(-0.0394807 0.0325276 0.00864627)
(-0.0223811 0.0333869 0.238493)
(-0.0364336 0.0209396 -0.000718396)
(0.0492251 -0.0754803 0.0250864)
(0.0342992 -0.0697596 0.021705)
(-0.00256518 -0.0200416 0.161106)
(-0.0193118 0.0238179 -0.0151744)
(-0.0218803 0.0163197 0.0496879)
(-0.0215983 0.0352867 0.0832906)
(0.0284157 0.0916951 0.0102023)
(0.00603105 0.0109843 0.399029)
(-0.00689731 0.0435446 0.383133)
(-0.0298211 0.0393591 0.343217)
(-0.0566575 0.0706195 0.274942)
(-0.128627 0.0165071 0.240624)
(-0.0556561 -0.030181 0.0475536)
(-0.250337 0.0606987 -0.13743)
(0.0322047 0.0135639 0.0494052)
(0.0656684 0.0339717 0.110159)
(-0.0635306 -0.0166934 0.0872183)
(0.0671534 0.0272944 -0.104931)
(0.000177114 0.0064925 0.00237289)
(-0.0145378 0.0184917 0.03696)
(0.00386907 0.0135353 0.176101)
(-0.0249195 0.0311915 0.0605403)
(-0.12358 0.028653 -0.297539)
(0.00551661 0.0288498 0.0343744)
(0.0403519 0.00115964 -0.137245)
(0.103261 0.0333473 -0.181395)
(-0.0054503 0.0421881 -0.00925934)
(0.00736043 -0.00688432 -0.0676505)
(-0.0079033 0.0269655 0.0624925)
(0.0675657 0.0315006 0.0989627)
(-0.0292583 0.000577821 0.258398)
(-0.00767696 -0.0168569 0.0392696)
(-0.0159665 0.0295417 0.03495)
(-0.0231826 0.0593326 -0.0188098)
(0.193192 -0.141298 -0.298725)
(0.232638 -0.100055 -0.438921)
(0.10089 -0.029917 -0.129242)
(-0.054345 -0.0172848 -0.0353618)
(0.126173 -0.0269113 -0.0954343)
(0.176946 -0.190071 -0.539129)
(0.135018 -0.0160005 -0.107655)
(-0.175673 0.117231 0.0627749)
(0.00862338 0.00930153 0.013792)
(-0.0779964 0.0609101 0.0948393)
(-0.383253 -0.0680648 -0.43168)
(-0.0738392 0.211954 0.00565803)
(-0.0212724 0.0158098 0.000394135)
(-0.103984 -0.0338175 0.019918)
(0.0780887 0.00445601 -0.0332936)
(-0.0154884 -0.0104959 -0.0756598)
(0.0634257 -0.0131512 -0.0475197)
(-0.0180233 0.0102724 0.0219099)
(0.0364522 -0.0489526 -0.0152501)
(-0.00621177 0.00610442 0.0199807)
(-0.0188523 0.0454789 -0.0568914)
(-0.0146526 -0.0128882 -0.0035326)
(1.61685 0.631524 0.0377281)
(0.0362465 0.173394 0.0530321)
(0.616567 0.365893 0.0443522)
(-0.115187 0.0406926 0.0829231)
(-0.0184115 0.0651449 0.0346852)
(-0.000313474 0.153139 0.172792)
(0.0108064 -0.00170842 -0.0361383)
(-0.0318651 0.0212015 0.322078)
(0.030934 -0.0250975 0.133128)
(-0.04055 0.00912613 0.0898846)
(0.0414235 0.00481643 0.218134)
(0.00320212 -0.0213107 -0.0346678)
(-0.0482517 -0.00395686 0.0365348)
(-0.0338735 -8.04686e-05 0.0332158)
(0.0153584 0.0228654 0.0187733)
(-0.00599627 0.0102885 0.507198)
(0.0370341 0.0058962 0.321407)
(0.00244339 0.038557 -0.111071)
(-0.00498884 0.0147961 0.136202)
(-0.0140212 0.0212776 0.152066)
(-0.00852282 0.00124674 0.210066)
(-0.0156301 -0.01633 -0.0342328)
(-0.000134638 0.0395632 -0.00757402)
(-0.0279694 -0.0125554 0.429269)
(1.59518 -0.33387 0.325273)
(-0.0198906 0.00621264 -0.0205426)
(-0.0733547 -0.0409905 0.0899434)
(0.000691971 0.0154204 0.502363)
(0.0374361 -0.0647702 -0.0555489)
(0.0438812 -0.0738219 -0.0585202)
(0.00754956 0.0335976 0.510781)
(0.0432527 -0.0815221 -0.0515954)
(-0.0424706 -0.0127641 -0.0377701)
(-0.0313431 0.008973 0.306785)
(-0.00592136 0.00539676 0.00663921)
(-0.00397368 -0.072214 -0.00266165)
(-0.0445384 -0.00999142 0.283465)
(-0.00460863 -0.014207 -0.0248711)
(0.00552683 0.0118195 0.0170952)
(-0.0247504 0.0302214 0.0591534)
(-0.0238084 0.0168848 0.0729897)
(-0.0522412 0.00712865 0.220345)
(-0.0517348 0.000922074 0.293122)
(-0.00679117 0.0308074 0.0208623)
(-0.0689561 0.0234681 0.161791)
(0.0351937 -0.025075 0.145049)
(0.0224403 -0.0190756 0.296555)
(0.0158662 0.00535763 0.355384)
(-0.0138322 0.0162707 0.149257)
(0.284189 -0.434023 -0.539552)
(-0.00972233 -0.0140199 0.479903)
(-0.0503819 -0.00640811 0.00768834)
(-0.00300008 -0.0140366 0.430944)
(-0.00752582 0.0011003 -0.0309234)
(-0.383344 0.0712876 -0.2869)
(-0.194404 0.0339122 -0.140354)
(-0.0836522 -0.0347997 -0.160871)
(-0.00958327 -0.027928 -0.0178016)
(-0.0162931 0.00404025 -0.000688813)
(-0.16548 0.249746 -0.0699989)
(-0.0835308 0.0102319 -0.0406359)
(0.03105 0.00741484 0.0287542)
(0.000713694 -0.0343926 -0.0262738)
(-0.00785265 -0.0786813 -0.0470164)
(0.0623137 0.0304593 0.0932732)
(-0.0532554 0.0325183 0.0144395)
(-0.0154383 0.0104427 -0.0118356)
(-0.0278225 0.0365892 0.083603)
(0.0234549 -0.0509617 0.00760202)
(-0.000980645 0.012418 0.042897)
(-0.048857 -0.0145391 -0.0382971)
(-0.0654109 -0.0563887 0.00700405)
(-0.0149592 -0.063832 -0.219336)
(-0.0554105 -0.00689637 0.307302)
(-0.0183359 -0.0142137 0.119903)
(-0.043753 -0.00326236 0.300678)
(0.0399172 0.00208839 0.136059)
(0.00862682 -0.032471 -0.0335984)
(-0.0139436 0.0436388 0.126098)
(0.035077 0.00601543 0.00588549)
(0.0525951 0.000622486 -0.0376492)
(-0.0273432 0.0094237 -0.0378574)
(-0.0273985 0.0373124 0.107644)
(-0.0284427 0.0423314 0.0339409)
(-0.0383664 -0.00284798 -0.0220065)
(0.013837 0.0110714 0.181635)
(0.590891 -0.375786 -0.262569)
(0.123303 -0.16362 -0.0198235)
(0.114358 -0.259646 0.107692)
(0.163231 -0.195691 -0.00276686)
(-0.100995 0.0563765 0.194373)
(0.0270059 -0.07074 0.255108)
(0.0661326 0.0250672 0.032274)
(0.0836288 0.0895465 0.0612072)
(0.127401 -0.0166517 -0.0760565)
(0.0427225 0.0139479 0.202312)
(-0.0264104 -0.000781802 0.0241002)
(0.00188345 0.0340114 -0.00494488)
(-0.00802587 0.000632515 -0.0135755)
(0.0282823 -0.00881326 -0.000910481)
(-0.033699 0.0220472 0.220649)
(-0.845158 -0.165019 -0.671992)
(0.0104238 0.00371705 -0.00268133)
(-0.365419 -0.158451 0.323502)
(-0.144497 0.0158838 0.370671)
(0.0337686 0.0375097 -0.0511048)
(-0.0166169 0.0191714 0.0527874)
(-0.0296227 -0.00988091 0.0644724)
(0.0101461 0.0134908 0.0747989)
(-0.0297353 0.0140226 0.0283184)
(0.00926573 -0.0862882 0.0123343)
(0.0206785 -0.0781815 0.0342937)
(-0.0257804 0.0164448 0.0153369)
(0.0162022 -0.00700049 0.0250729)
(0.0191941 -0.0817739 0.0160842)
(0.0266519 -0.0761498 0.0308215)
(0.0156889 -0.0545803 -0.0719589)
(-0.0442533 0.0500392 0.0734876)
(0.0969597 -0.00601571 -0.0143608)
(-0.0110926 -0.0202802 -0.0175434)
(0.0224544 -0.0151149 -4.58731e-05)
(0.00310077 0.00644828 0.0160177)
(0.023883 -0.00145261 0.00412687)
(0.0148178 -0.0210256 0.0299925)
(-0.0509471 0.0305549 0.10091)
(-0.0431949 -0.0067022 0.011449)
(0.0273985 0.0451121 -0.0246889)
(-0.126334 -0.0186884 0.0345462)
(-0.0650973 -0.0409974 0.199735)
(-0.0113707 -0.0334887 0.335022)
(-0.0224079 -0.0542377 0.326315)
(-0.0137132 -0.00752639 0.0155802)
(-0.00480298 -0.000953479 0.407123)
(-0.0199308 0.0247585 0.42186)
(-0.00439728 0.0632508 -0.0525678)
(-0.0556809 0.00969386 0.00820173)
(-0.00291074 0.0171974 0.00153575)
(-0.0348097 -0.00269242 -0.02098)
(-0.0405258 0.0448718 0.0724959)
(0.0133247 -0.0138849 -0.222618)
(0.154957 0.119844 -0.160654)
(0.132561 0.0437554 -0.227723)
(0.0295053 0.00599932 0.390121)
(0.0962931 -0.159536 0.338819)
(0.00380274 0.0412796 0.0349145)
(0.133341 -0.100795 0.384587)
(0.206223 -0.113009 0.214945)
(-0.00198133 -0.0316985 -0.0306825)
(-0.00136424 -0.0238429 0.00677313)
(0.00656027 0.0269459 -0.0466779)
(0.000730633 -0.0461207 -0.0511447)
(-0.0763302 0.122914 -0.299136)
(-0.0204652 -0.00314607 0.00754248)
(-0.0582199 -0.0494473 -0.0517426)
(0.034489 -0.0325158 0.0124483)
(0.0205331 0.0644792 -0.0232641)
(-0.0182284 0.00158998 0.00109212)
(0.0224503 -0.0303844 -0.0649514)
(-0.00128461 0.0243338 -0.0383012)
(-0.0474458 0.00824301 0.0564106)
(-0.121932 0.0841004 -0.29673)
(-0.133399 -0.0432354 0.099504)
(0.0649155 0.0390299 0.0662362)
(0.0725384 0.0481161 0.0475441)
(-0.0217038 -0.00231669 0.0202614)
(0.0281812 0.0541996 0.101045)
(-0.00703638 0.0233793 -0.00121904)
(0.023018 0.0458656 0.0166253)
(0.0119008 -0.0537893 -0.0716205)
(-0.0317262 0.0230144 -0.0347011)
(-0.0517768 -0.0824906 -0.0308985)
(-0.153329 -0.181743 -0.0586974)
(-0.294091 -0.316831 -0.127631)
(-0.026973 0.227116 0.200594)
(0.0035887 0.0281937 0.0057188)
(0.0181911 0.00595278 -0.0256981)
(0.0242291 -0.0898828 -0.104594)
(-0.0136127 -0.00760348 0.00189601)
(0.016983 0.0335563 0.014404)
(0.0122762 -0.0426905 0.00512532)
(-0.0170262 -0.00646892 0.0231395)
(0.00115412 -0.0264185 -0.064207)
(0.0131715 -0.101186 0.0274533)
(0.0157516 -0.0302214 -0.0322903)
(-0.104358 0.134283 -0.459445)
(-0.0144791 -0.0267963 -0.0373552)
(-0.022317 -0.00431176 -0.0357281)
(-0.00476901 -0.0141334 -0.0314337)
(-0.0270738 -0.00336397 -0.0344603)
(-0.0602844 0.0176997 0.0258904)
(-0.0156411 -0.025315 -0.0433252)
(-0.0201615 -0.0383096 -0.0329058)
(-0.016063 0.0358909 -0.0114559)
(0.0515452 0.0298834 -0.148105)
(-0.0372049 -0.00944989 0.0077654)
(-0.0259796 -0.00194163 -0.00479002)
(0.00200772 -0.0173833 -0.0345593)
(-0.0261152 -0.00234547 -0.00516656)
(-0.0283909 0.00438565 -0.000896349)
(-0.0229266 -0.00890612 0.00579929)
(-0.0243888 -0.00637919 0.00216304)
(-0.0314789 -0.000452792 -0.0350347)
(-0.0848895 -0.0124848 0.0386463)
(-0.0196546 -0.0431409 -0.0498527)
(-0.0328656 0.00644464 0.119548)
(-0.039373 0.00350078 0.129191)
(-0.0512134 0.0159268 0.169822)
(-0.025763 -0.000420689 0.0711153)
(-0.0248247 -0.0530051 -0.0513905)
(-0.021925 -0.00116896 0.0192668)
(-0.0176304 -0.0034668 -0.0364947)
(0.0256039 -0.000452869 0.263281)
(0.0139062 -0.0232865 -0.0243032)
(-0.039134 0.0123112 0.0313918)
(-0.0386612 0.000921511 -0.0267864)
(-0.0723561 0.134562 -0.319791)
(-0.0402107 -0.0183344 -0.0182982)
(-0.0155511 0.0154958 0.0441772)
(-0.0244875 -0.0131548 -0.0454332)
(-0.0357616 -0.00878476 0.0143784)
(-0.0724812 -0.00664347 0.0187722)
(0.0250001 -0.0236885 -0.0165121)
(-0.0224665 0.000997211 0.040781)
(-0.0145498 0.0217371 0.0345353)
(-0.267187 -0.563841 -0.159103)
(-0.0277791 0.0363035 0.0924481)
(0.212188 0.276595 -0.343954)
(-0.0641068 -0.023479 0.0833514)
(0.0723623 0.0408192 -0.0606396)
(0.0292278 -0.0175907 0.026251)
(-0.0206157 0.0189563 0.0525277)
(-0.0731294 0.00465879 0.599005)
(0.0529049 0.0238181 -0.0621112)
(-0.00314002 -0.00165512 0.0163444)
(-0.30883 0.0052206 0.765193)
(-0.0426234 0.0294112 0.0290661)
(-0.0328388 0.0231284 -0.104324)
(-0.020276 0.00999155 0.021485)
(-0.000252986 0.121622 0.240544)
(0.0282725 0.0770545 0.21321)
(-0.0520729 0.0299551 0.108954)
(-0.0163459 -0.0350684 -0.0256683)
(-0.0297739 0.0231302 -0.0554952)
(-0.0257065 -0.044345 -0.0109447)
(0.0689865 0.000690451 -0.0239672)
(0.0147596 0.00175687 -0.00202227)
(0.0480093 0.0285869 0.059456)
(0.0182661 0.00400742 0.00395224)
(-0.0129427 0.0259821 0.0725411)
(-0.00241121 0.0437878 -0.10208)
(-0.0176297 0.0252457 0.0404046)
(0.0111256 0.0184548 0.0337327)
(0.0540948 0.0895912 -0.0623747)
(-0.0320549 0.0393285 0.0569217)
(0.315173 0.0833167 -0.369814)
(0.0187345 0.0432824 -0.0455853)
(0.0923658 0.0509865 0.109163)
(0.0570736 0.105743 -0.122184)
(0.00429215 0.00486883 -0.015011)
(-0.0483418 0.000302485 0.0247293)
(-0.0444533 -0.00462736 0.187938)
(0.0286656 0.0307435 0.0159386)
(0.0362494 0.00965844 0.0342445)
(-0.0232996 -0.00784171 0.499388)
(-0.0414505 -0.0149492 0.0577075)
(-0.105631 0.0522093 0.237392)
(-0.0654453 0.0388073 0.387863)
(0.0453769 -0.0618968 -0.108594)
(-0.0432379 0.016033 -0.028316)
(-0.0133345 0.0223176 0.0253012)
(-0.0319877 0.040943 0.00852558)
(0.0342421 0.0128703 0.0490239)
(-0.0130901 -0.0312885 -0.0329839)
(-0.0809054 -0.0526797 0.0163684)
(-0.0660039 0.0196894 0.383247)
(-0.0296753 0.0298379 0.076099)
(-0.0724092 -0.00931389 0.0374611)
(0.0371055 0.0614615 0.0106817)
(0.135109 0.0587565 -0.159258)
(-0.0254661 0.0275233 0.0862381)
(-0.0213384 -0.0439736 -0.0506704)
(-0.0455058 -0.00685125 0.0758881)
(0.051811 0.0257229 -0.0163761)
(-0.0190743 0.0344688 0.0563462)
(-0.0289424 0.0931097 0.160488)
(-0.0352697 0.012786 0.437155)
(-0.0354412 -0.0867549 -0.0974628)
(0.0273745 0.058223 0.454785)
(-0.00454756 -0.0232102 0.493785)
(0.0171149 -0.0430642 0.479633)
(-0.0107611 -0.0272748 0.489178)
(0.0584851 -0.0614049 0.33665)
(-0.0396282 -0.0213706 0.359039)
(-0.0442943 -0.00304145 -0.0273284)
(1.56489 -0.388386 -0.841902)
(0.949038 -0.123008 -0.206298)
(-0.0544276 -0.00648721 0.0147639)
(-0.0113607 -0.0166207 0.0134077)
(0.0998078 0.117512 0.342988)
(0.0146516 0.0095015 0.0286491)
(-0.0138374 0.0288654 0.0265616)
(-0.162199 -0.0990572 -0.290731)
(0.0416562 0.0430728 -0.0390593)
(-0.087009 0.0377722 0.418532)
(-0.0443304 0.0433252 0.0583103)
(-0.09577 0.0448853 0.126967)
(-0.00602681 0.0290942 0.0183919)
(0.0738988 0.0406519 0.0669198)
(0.0115756 0.011296 0.155612)
(-0.0136835 -0.00723298 -0.0170927)
(-0.0406702 -0.0165971 -0.0278927)
(-0.0269107 0.0185027 -0.0382628)
(-0.0825501 0.0153296 0.0263)
(-0.0660754 0.0383549 -0.0144185)
(-0.0479159 0.0174608 0.224484)
(0.00630298 -0.0130252 -0.0154598)
(-0.096958 0.0451113 0.120506)
(-0.0173246 -0.00400876 0.000183415)
(-0.00501786 -0.0499438 -0.0431553)
(0.175106 0.143409 -0.315574)
(-0.010208 0.0126289 0.0369192)
(0.0224854 -0.0385575 -0.0740898)
(0.00519142 0.0296252 0.0413034)
(-0.0486123 0.0115365 -0.00551143)
(0.0425283 0.000508516 -0.0597616)
(-0.041188 -0.00872491 -0.0238263)
(-0.0928768 -0.150494 -0.210484)
(-0.00939558 0.067996 -0.208377)
(-0.0630224 0.0388177 -0.196491)
(-0.15344 0.0565213 -0.234686)
(-0.0964143 -0.120398 -0.214199)
(-0.131435 -0.210186 -0.213464)
(-0.109157 -0.153844 -0.209033)
(-0.00918048 -0.0113423 0.257355)
(-0.0374495 0.0415602 0.0471895)
(-0.0254975 -0.00511118 0.0551025)
(0.0394567 0.0880914 -0.131859)
(0.00693825 -0.0181423 -0.00331247)
(-0.0453597 0.159222 -0.499925)
(0.067568 0.0155648 -0.16997)
(-0.0446467 0.167282 -0.33348)
(0.0236749 0.00939395 0.0322851)
(0.0262455 0.0549955 -0.00176466)
(0.0549214 0.239937 -0.301017)
(0.137092 -0.0847814 -0.0135418)
(0.105087 -0.154734 -0.152433)
(-0.176776 -0.240434 -0.368516)
(-0.00427001 0.0271343 0.374427)
(0.0575481 -0.320384 -0.167207)
(-0.0231904 -0.0397689 -0.0238918)
(-0.048023 -0.0107056 0.0760338)
(-0.0286317 0.0182452 0.0288617)
(0.016412 0.0239141 0.127996)
(-0.00343741 0.0212728 0.0140934)
(-0.0433096 -0.0436018 -0.0682498)
(-0.0337267 0.0177863 -0.0229207)
(-0.0626965 0.0388994 0.26442)
(-0.0237088 0.0344533 0.0827962)
(0.00766276 0.0143367 0.00699434)
(-0.0184727 0.0252878 0.0463257)
(-0.0395243 0.0324958 -0.00766845)
(-0.0125369 -0.0266535 0.448982)
(0.0171002 0.0269356 0.47803)
(-0.014895 0.0260557 0.0269177)
(-0.0380755 -0.0904616 0.16299)
(0.0511982 -0.0236636 0.268724)
(-0.00929969 -0.0304631 -0.0117323)
(-0.0409818 -0.0127357 -0.028122)
(-0.0588289 -0.0141362 0.0437998)
(-0.00143284 0.0358464 0.0173607)
(-0.0148309 0.00619545 -0.0301711)
(0.0419054 -0.0155808 -0.0334837)
(-0.0389435 0.00435637 0.0159061)
(-0.00883683 -0.0213284 -0.0405994)
(-0.101944 -0.0648196 -0.0241411)
(-0.045258 -0.00505289 0.0377903)
(-0.0256124 0.0357829 0.0822476)
(-0.0154702 0.000344364 0.0325427)
(0.0553823 0.0342548 0.0472582)
(0.127056 0.0525157 -0.145691)
(-0.00540206 0.00468233 0.00206316)
(0.11734 0.0575941 -0.111138)
(-0.0296118 0.0734031 0.0590639)
(-0.0122185 -0.0110798 -0.0286632)
(0.116509 0.0928038 -0.0653319)
(-0.019685 -0.0378923 -0.0464523)
(-0.0786993 -0.0263147 -0.0792737)
(0.183207 0.0582394 -0.0943068)
(0.25162 0.047236 0.0118798)
(0.140126 0.0380555 -0.0537164)
(0.162706 0.066524 0.0170017)
(-0.0284511 0.0138721 0.0217592)
(0.0153504 -0.00184394 -0.0430961)
(-0.0187545 0.0205502 0.0267865)
(-0.0384421 0.00641971 0.0607897)
(-0.0385951 -0.00714215 0.0117147)
(-0.0270401 0.000310966 0.0273654)
(-0.116008 -0.098368 -0.150241)
(-0.0585993 0.0577775 0.0781983)
(-0.0918572 0.0225404 0.00107054)
(0.00895509 0.0197804 0.0730836)
(-0.0064593 0.00569201 0.00794841)
(-0.0203446 -0.0347537 -0.0160895)
(-0.0185808 0.00460997 0.0811994)