/*--------------------------------*- C++ -*----------------------------------*\
  =========                 |
  \\      /  F ield         | OpenFOAM: The Open Source CFD Toolbox
   \\    /   O peration     | Website:  https://openfoam.org
    \\  /    A nd           | Version:  11
     \\/     M anipulation  |
\*---------------------------------------------------------------------------*/
FoamFile
{
    format      ascii;
    class       volScalarField;
    location    "20";
    object      p;
}
// * * * * * * * * * * * * * * * * * * * * * * * * * * * * * * * * * * * * * //

dimensions      [0 2 -2 0 0 0 0];

internalField   nonuniform List<scalar> 
20983
(
-0.000720102
-0.00109703
-0.00119496
1.45027e-05
-0.00120724
-0.00206881
3.02871e-05
-0.00230318
-0.000944326
-0.0075398
-0.000687039
-0.00483608
-0.000722566
-0.000553211
-0.000406673
-0.00332877
-0.000150543
-0.00225359
-0.00302738
9.14363e-05
-0.00142433
-0.000957853
0.000596508
-0.00132017
-0.000858213
-7.06189e-05
0.000145381
0.000912546
0.00116017
0.00138534
0.0233144
0.00151047
-0.00410425
0.00147949
-0.00346919
-0.000103996
-0.000811784
-0.000337127
-0.0011455
-0.000246317
5.99717e-05
-0.00909594
-0.000853539
0.00087741
0.000223016
-0.000985369
-0.000965407
-4.12354e-05
0.244527
0.243499
-0.00169701
0.00116367
-0.000835854
0.00458696
7.52917e-05
-0.00504497
-0.00300236
-5.63226e-05
0.000844149
0.000793238
-0.000412908
-0.00164123
6.7557e-05
-0.00168349
-0.00855522
-0.00121315
2.58431e-05
4.41326e-05
0.00164119
-0.000263425
-0.000416351
-6.36097e-05
-0.00210088
-3.71223e-05
-0.00159154
-0.0187922
-0.0107105
0.000209446
-0.0122204
-1.09618e-07
-0.000984573
-0.00509498
-0.000680626
-0.129317
0.000550489
-0.00054693
-0.00142248
-0.00593816
-0.0225103
-0.00165323
0.000157875
-0.254612
-0.0120823
0.000305133
-0.00291573
-0.00033447
0.00012085
-0.000220574
0.000233034
0.00184072
0.000387426
-0.00118723
-0.00242733
-0.000422702
-0.000584386
-0.00146431
-0.00189307
-0.000829993
-0.0452399
0.000337222
0.000280071
-0.000850351
-3.69036e-05
-0.0439142
-0.0299479
-0.000521391
-0.156437
-0.0363716
-0.212559
0.00511664
0.000230953
-0.00152314
-0.00170632
-0.000877338
0.000105984
-0.00109397
5.67188e-05
-0.000159692
0.000860707
0.00272702
-0.00085345
0.000147539
0.000890313
-0.00215492
-0.00181301
0.00155453
-0.000215685
-0.00238622
-0.000247421
0.00548817
0.00706953
-0.00263909
-0.000864004
-0.00119877
0.000389301
-0.000287565
-0.00160128
0.00714822
-0.0112355
-0.00903053
0.00425963
-0.000319767
0.00105291
-0.000491289
0.0266985
0.0389979
-0.000974529
-0.00106192
-0.000223877
-0.000498558
0.00167502
-0.00180552
-4.03178e-05
-0.000184904
-0.00935293
0.00015071
-2.9555e-05
7.11207e-05
2.27299e-05
0.000171857
8.58253e-05
-0.172816
0.0105075
-0.0126146
-0.00172202
-0.00137342
-0.0688148
5.24094e-06
-0.338893
-0.0021505
-0.00132498
-0.00159137
-0.000644535
0.00103466
-1.26513e-05
-0.0134057
0.000241387
0.000176704
-0.00588197
-0.000835785
0.000429101
-0.000383945
1.99588e-05
0.000649864
0.00140251
-0.000529418
-0.0069077
0.00337038
0.00178432
-0.00673963
0.00014107
-0.0079463
-0.00167416
-0.00326668
-0.000553169
-0.00405229
-0.00128519
-0.000695586
-0.0923959
-0.00148445
-0.000389378
0.00643102
0.0142431
0.000762541
-0.00104444
-0.000775229
-0.000467838
-0.00124763
0.00166628
-3.3804e-05
-0.00172605
0.000330295
-0.00030474
3.66547e-05
0.000594839
0.00113596
0.000107393
0.00353199
-0.00199775
0.000990016
-0.00020489
-3.35952e-05
0.00173797
-0.0212193
-0.169722
-0.00306385
0.0135167
-0.00387405
-0.00597344
0.00193088
0.000741618
0.00048174
0.000274001
-0.000152724
0.00141956
-5.75185e-05
-4.89655e-05
-0.000897648
0.129182
0.0540825
0.227353
0.0334792
0.0422265
-0.00166657
-0.00446689
0.00394325
-0.00802958
0.000733772
-0.00204157
0.00145312
-0.00269909
-0.00214239
-0.00111474
-0.000130596
0.000364578
-0.00239757
-0.000573368
-0.000121813
0.000372095
2.65639e-05
0.000671997
0.0113987
0.000375523
-0.000773313
0.000527424
0.000300161
0.000545391
-0.000581367
0.000848642
0.00035404
-0.00252401
-0.00285127
-0.000238307
-0.0142343
-0.00170318
-0.000121234
0.00135629
-0.000598997
0.00117788
0.000900244
-0.00259921
-0.00285376
-0.00131939
0.00240328
0.000210123
-0.0025212
3.5543e-05
0.000776241
0.000223218
-0.000959926
-0.000619704
0.000269596
-0.0011564
-0.000993556
-0.00180562
-0.00368294
0.000549194
0.000241314
0.000598229
-0.00310175
-0.00164383
0.0153002
0.0239898
0.0146369
-0.000939918
0.000215629
0.0031902
0.000512273
-0.00127774
-0.000831228
-0.00095671
-0.0210582
-0.0159116
-0.00132126
0.000523821
4.133e-05
-0.000335072
-0.00106012
-0.000887276
0.00885857
0.00161521
-0.000770426
0.000188031
-0.00139092
-0.00293856
-0.000243335
-0.00711418
0.000474743
-0.000867432
-0.0365721
-0.00666907
-0.00187768
-0.00427611
-0.0101106
0.0854364
0.022671
-0.00996409
0.000776042
-0.00121634
-0.00138918
-0.000286948
-0.000777934
0.00117357
-0.000254721
-0.00444826
-0.000176492
0.0026015
0.000537364
-0.00137487
0.000809095
-0.000391961
-0.0494321
-0.00120882
0.000301738
0.000423007
-0.000628618
-0.00228632
-0.000210768
-0.000170043
0.000549543
5.72558e-05
-1.37083e-05
-0.00245099
0.00128584
-0.000178427
0.000120957
-0.000792629
-0.0205964
-0.0233559
-0.559408
-0.0557732
0.000206576
-0.0456295
0.0153535
-0.0407801
-0.00102702
-0.000114888
0.00560041
-0.0475566
0.0222435
0.00368524
-0.0210161
-0.00213316
-0.000898233
-0.00549749
-0.000195459
-0.00106163
0.00118602
-0.000947468
0.00217065
-0.00110767
-0.000141563
0.0312861
0.000937218
0.00980453
0.00213684
0.00195378
-0.0462756
-0.00117399
-0.00102213
0.000101621
0.00164812
0.00218799
0.0085484
-0.00270985
0.000240742
0.0121324
-0.000112972
-0.000930579
-8.86643e-07
0.00976417
0.00376232
0.000165154
0.00448952
-0.000579249
0.000103986
0.000371113
0.00106477
0.00338046
-0.000766087
-0.000329147
-0.00124277
0.00265254
-0.00177842
0.00360618
-0.000558569
-0.0088642
-0.0135791
-0.0020819
-0.0358255
0.00102902
-0.000960494
7.91819e-05
-0.000917738
-0.00173651
0.000220197
0.000738518
0.000103932
0.00646467
-0.000356968
0.02374
0.015418
0.000453045
-0.00166758
-0.00125406
0.000697771
-0.000778817
-0.00252322
0.000136435
-0.00179483
-0.00189579
-0.0433944
-5.11159e-05
-0.000497848
0.00151017
-0.0212503
-0.00489635
-0.0150515
-0.00228414
-0.00745254
-0.06479
-0.00583017
0.000368794
-0.000476599
0.000244696
-0.00450151
-0.00881734
0.000113781
-0.00518831
-0.000566134
-0.00153599
-0.000611244
-0.0642622
-0.099163
0.0256082
-0.0380556
-0.00487814
-0.00697675
0.00100789
-0.000704523
-0.00197913
-0.00101599
-0.00615162
-0.000192447
-0.00120719
-6.78668e-05
-0.000565724
0.00315584
-0.00676835
-0.000462994
-0.00134927
-0.00117191
-0.00105221
-0.000859944
-4.19443e-05
0.00952763
-0.459413
-0.000420666
0.000428752
-0.001122
0.00143834
0.00126242
0.00112943
0.00124471
2.87628e-05
-0.00151538
-0.000834814
0.000329
0.000952193
-0.00109698
-0.00170915
0.000192535
-0.00117072
-0.00282042
0.00740301
-0.00107996
-0.00261452
0.000447456
-0.00293658
-0.013736
0.00640089
-0.0380366
0.0046041
-9.62647e-05
0.0079066
-0.000956055
0.00673193
0.000796231
-0.000420768
-0.000982845
-0.000331537
0.0107727
-0.00300424
0.000990177
-1.18028e-05
0.00129695
0.00103635
0.000409572
9.31731e-06
-0.000237308
0.000551254
-0.00228302
-0.000349868
-0.00636864
-0.0131614
0.00856979
0.013993
0.0161461
0.0143495
-0.00110117
0.00238782
4.1587e-05
0.000474304
-0.000834905
-0.00259259
-0.00204795
-3.27222e-05
0.00119815
-0.14685
-0.00348375
-0.0848619
-0.0191723
0.0120531
-0.0203972
-0.00231108
0.00164171
0.00400617
0.318905
-0.00145277
0.000259974
-0.00188552
-0.00112918
-0.000979354
-0.267186
-0.000609759
-0.334046
-0.214966
-0.00156283
-0.000440434
-0.0011465
-0.00156425
-0.00118654
0.000390008
-0.000263719
0.000321577
-0.00149666
0.00133879
-9.77688e-06
0.000590238
-0.000330228
-0.00158568
-0.000215342
0.000317515
0.00114277
0.000286157
-0.00110515
0.00170278
-7.27411e-05
-0.00148231
-0.00850844
-0.0043741
-0.00398959
-0.00442379
-0.00147771
0.00734644
-0.0193468
-0.00142045
-0.000169839
-0.0006056
-0.00211566
0.000509791
0.00396555
-0.0106314
-0.0186497
-0.00194114
-0.00179255
-0.000453231
0.00666904
0.00257521
-6.88408e-05
-0.00277722
0.00270676
0.000532182
-0.0420538
-0.000186498
0.000709921
-7.25198e-05
-0.0031424
-0.000684068
-5.35748e-05
-0.00120663
-0.000105831
-0.016769
-0.00358063
-0.000818306
-0.00132
-0.00153641
-1.62777e-05
-0.00079627
-0.00107022
0.000623178
-0.000237925
-0.000994132
-0.277673
-0.323076
-0.0964397
0.000407045
-0.00149365
0.000270412
0.000420649
-0.00104423
0.000515606
-0.00135891
0.000253899
-0.000351381
0.00151058
-0.0760375
-0.000630418
-0.000326423
-0.000137181
-0.000529012
0.0001151
0.00154521
0.00175318
8.56065e-05
-0.00309919
0.000336284
-5.99558e-05
-0.00112595
6.74748e-05
2.08603e-05
0.000224311
0.00010895
-0.000594866
-0.00182519
-0.000111843
0.000971519
0.00137627
0.000752686
0.000984782
0.000596395
-4.86563e-05
7.29064e-05
0.00165029
0.000271052
-0.000440288
0.000760088
-0.0169484
0.000266456
-0.000590958
0.000606701
-8.45427e-05
-0.00288668
0.00238797
-0.00130469
0.000168247
-0.0816721
-0.000759371
-0.115877
7.0511e-05
-0.00159744
0.00161557
-0.00117073
-0.00470433
-0.00124717
0.00134629
0.000768313
-6.63258e-05
-0.00176029
-0.000391485
-0.00121393
-0.00115206
0.00135642
-0.000556227
0.0026694
0.000809214
-6.03e-05
5.0792e-05
-0.00072591
0.000112566
0.00164316
-0.00115115
8.8498e-05
-0.000419911
-0.000604744
0.000641437
-0.0407567
-0.00148876
-0.00634366
-0.000562152
-0.00157961
-7.5704e-05
0.00669117
0.000171309
-0.00154881
0.0219654
0.0112434
0.0118506
0.00937051
-0.00152133
-0.00133612
-0.000706868
-0.000905593
-0.000722736
-0.000793263
-0.000916628
0.00631687
-0.00141522
-0.00225186
-0.000785982
0.00269664
-0.00160869
-8.37467e-05
0.000215222
-0.00138521
-0.000166307
0.0142602
0.061678
0.0439924
0.0199683
0.00779891
-0.012775
-0.0126507
-0.0393381
-0.0390739
-5.44772e-05
-0.161283
0.00197903
-0.000281057
-0.000523001
0.222127
-0.00137983
0.000245146
-0.0495401
-0.00153976
-0.000497805
6.2733e-05
0.000565678
0.000359064
-0.0013608
-0.000136896
-0.000711015
-0.000637016
-0.000893278
0.00015933
-0.00301521
-0.000481062
-0.000889519
0.000650841
-0.000851707
0.000132347
-0.0692185
0.000513795
0.00143312
0.00114782
-0.00140496
0.000226142
0.000394209
0.0420115
0.0025004
0.00985865
0.00395558
0.0423996
0.0206119
0.0429883
-0.000113129
0.00018737
-0.00132584
-0.0021427
0.000322611
-0.0182105
-0.00217149
-0.0144229
-0.000295583
-0.0014751
-0.032174
0.0145118
0.0148976
0.00298901
0.00462997
0.0189237
-0.000457996
0.000113091
0.000408111
0.00103528
0.00040385
-0.000984699
-0.00135549
-0.00077638
-0.00157393
-0.00217219
0.000250667
-0.000586682
0.00778365
0.031103
-0.00161282
-0.0134024
-0.0026419
-0.00125648
0.000482896
-0.000115757
-0.00113369
-0.00122531
-0.000647617
0.00053874
0.00647802
0.00133387
-0.00128486
0.00231581
-0.00178064
-0.00228378
-0.000143608
-0.000966888
0.0078563
-0.0016144
-0.00100636
0.00411092
0.000496076
0.000971599
0.0115785
0.00467968
0.0111845
0.00946201
-0.000439325
-0.000107689
-0.000281944
0.00030753
-0.000123912
-0.00014853
-0.0153853
0.00114495
0.000922468
-0.000865853
0.00132531
-0.00134119
-0.000645064
-0.00152116
-0.00144784
-0.00102798
0.000889093
0.000264029
0.00010324
-0.00025653
-0.000384989
-0.00147973
-0.00109112
-0.000406369
-0.00114373
0.00106309
9.12805e-05
-3.95111e-05
-0.00127607
-0.0011301
0.000822279
-0.00196287
-0.000741403
-0.000379273
-0.00145806
-0.000821834
-0.00128385
-0.00105456
0.00580289
0.000107612
0.0100794
-0.000665117
0.0173062
-0.000615479
-0.000692034
-0.00161316
-0.000244511
-0.000379223
-0.0010845
0.00182415
0.0004894
-0.00115838
0.00205786
-0.000710403
0.0134887
0.000941619
0.00369535
0.0127771
0.00080304
0.0284066
-0.000144075
0.00203734
-0.00126052
0.00200202
-0.00117064
0.00344595
-0.000617878
-1.50088e-05
0.00019995
-0.00038024
-0.000238481
-0.00102248
-0.000641722
-0.000876965
-0.000670164
-0.0115076
-0.000268955
-0.000140008
-0.000369424
0.00155895
0.000927303
-0.00125098
-0.00030844
-0.000818512
0.00192626
-0.000215722
8.07047e-05
-0.00199125
-0.000285327
-1.01296e-05
-0.00196156
0.000183893
-0.00058625
0.000323757
-0.00101985
0.00190742
-0.00162367
-0.00241832
0.000416577
-0.000486662
0.000651242
-0.000741924
-0.000577772
0.000410315
-0.00289871
0.000310741
1.2627e-05
-0.000459261
-0.00132446
-0.00153124
9.90318e-05
-0.00287461
0.000751523
-0.00151671
-0.000477065
-0.00104938
-0.000606945
-0.000558487
0.00104259
-0.00198241
-0.00181525
0.000164617
0.000655336
-0.000189472
0.000346208
2.09058e-05
0.000200784
0.0017334
-0.000749586
0.000264923
0.000360652
-0.0021426
-0.00106695
-0.00358518
0.000730921
-0.00229146
-0.00876732
0.000724012
-0.000547754
3.50761e-05
-0.000282214
0.00289668
-0.000632655
0.000916518
-0.00227715
-0.00252002
-0.00397924
-0.000584672
-0.00106452
0.000178849
-0.000156853
-0.00151208
-0.000310793
0.000250956
0.000165177
-0.00128525
-0.000627053
0.000376884
0.0018769
0.00187115
0.00185464
-0.00186063
-0.00023121
0.000367933
-0.000798465
0.000350318
0.000151987
-0.00079986
0.000681636
-0.0025337
-0.000893753
-0.00117419
-0.00144634
0.00128677
-0.0196537
-0.00103173
0.000204149
-0.00260358
0.00156479
0.00125601
0.000481364
-0.00192057
-0.00105289
-0.000423841
-0.000963625
0.00905187
-0.00140691
-0.000430616
-0.000266049
0.000669485
0.000748579
0.000800828
0.000748462
0.000553701
-0.00588161
-0.000140233
-0.000436016
-0.000271755
-0.00130134
0.00120008
0.000921195
0.00083951
0.000432098
0.000566658
-0.0025673
-0.000138236
0.00076269
0.000247675
-0.000445186
0.000247506
-0.000264828
-0.000812063
-0.0028328
-0.000643868
-0.00100777
-0.00130711
-0.00118159
-7.31313e-05
-0.00578519
-0.000279144
0.000614966
0.00404173
-0.00139733
-0.000935239
0.000186014
3.36699e-05
5.54179e-05
-0.00111134
-0.00058276
-0.000587571
-0.00094638
-0.00137442
0.00794695
0.00727491
0.00390791
0.00664148
0.00589608
-0.000633827
0.00250318
1.95463e-05
-0.000212986
-0.000568438
0.00315244
-0.000859329
-0.00173398
-0.000440871
0.000249259
0.00150018
-0.000106883
-0.00170803
0.000173813
0.000698662
0.000268118
-0.000554925
-0.0025233
-0.000647803
-0.00210855
-0.00214741
-0.00416384
0.000485812
0.00451431
0.00283293
-0.0035296
-0.00431069
-0.00462759
0.00118785
0.000139196
-0.0114392
-0.00158271
-0.0015479
0.00156785
-0.000876119
-0.00048011
-0.000544479
-6.91712e-05
-0.00125192
-0.000182765
-2.01114e-05
0.00148423
-0.00176015
0.000430744
0.00138017
0.0012059
-0.00503101
-0.00300675
0.000393934
-0.000591624
-0.000434457
-0.000326908
0.00077249
-0.00120833
0.000387563
-0.000592059
-0.000179983
-0.00205287
0.000591589
-0.00122293
-0.00124729
0.000175928
0.000569334
0.000262004
-0.00106257
0.000377792
-0.000766513
-0.000704047
-9.05641e-05
-0.00079649
-0.00146213
0.00038709
0.00220838
0.0039792
0.00315628
0.00165215
0.000886062
0.00266821
0.00161041
-0.00378495
-0.00458641
-0.00178844
-0.0002097
-0.000144199
0.000506394
-0.0003457
0.000463636
0.00106848
0.000670072
-3.0975e-05
-0.000623338
-0.00359156
-0.000898306
-0.000340989
-0.00171125
0.000474122
-0.000712671
-0.000389565
-0.000400354
-0.00566991
-0.0007439
0.000382745
0.00283125
-8.75175e-06
0.00121505
-0.000515344
-5.84864e-05
-0.000199135
-0.000864007
0.000384901
0.000363968
-0.000991379
0.000662769
0.000171892
-0.000914168
-0.00093508
-0.000928755
-0.00146854
-0.00297861
-0.000307691
-0.00112632
-0.000214113
0.000667667
-0.000615029
0.0107864
0.00141538
0.00147191
0.00200664
-0.00048509
7.72456e-05
-0.000358163
0.000135218
-0.00108332
-0.00116487
0.000123709
-0.00346445
7.5768e-06
0.00075788
0.00201669
-0.0016714
-0.000975908
-0.00218071
-0.000332571
-0.000524034
-0.00252442
-0.000628405
0.0014824
-0.000820459
-0.00126357
-0.00221702
-0.000420817
-0.00362469
0.000566502
0.00461243
0.00358606
0.00363595
0.00160714
0.0118696
-0.000622336
-0.0010725
-0.00177963
0.00179109
0.00157602
0.000347837
-0.00139806
-0.000148589
0.000536103
-0.000790974
0.00076632
-0.00246569
-0.00173484
0.00012459
-9.1671e-05
-0.00201612
-0.000577348
-0.00117697
0.000569964
-0.000390856
-0.000985701
0.000329827
-0.0267954
-0.00118796
-1.2092e-05
-0.000110155
0.00132802
0.00123312
-0.000621666
0.00115967
0.00382896
0.0159706
-0.00973556
0.00119673
-0.00147063
-0.000154527
9.23175e-05
-0.000805949
-0.000366579
0.000183191
-2.60769e-05
0.000124226
9.49511e-06
0.000141953
-0.00108503
0.00082548
-0.000134604
6.0422e-05
-0.0019019
0.000440258
0.000420337
0.000233422
0.00057879
0.00372271
-0.00300592
0.000472608
0.000369814
-0.0053736
-1.4651e-05
-0.000573163
4.91418e-05
0.00111109
-2.91479e-05
0.000538618
0.0013479
0.00110733
-4.13035e-05
0.00172094
-0.00276649
0.0018681
-0.000356351
-0.00106016
-0.00128478
-0.000701058
-0.000157487
-0.00191494
-0.000223764
-0.00260083
0.000173753
-0.000761238
-0.000149963
-0.000208587
-0.00101567
-0.000769881
0.000267931
-0.000632124
-0.000601676
-0.00153671
-0.000515459
-0.00238461
-4.92696e-05
0.0015452
-0.00148325
-0.00368127
-0.000496757
0.000588821
0.000425022
2.93324e-05
-0.000264983
0.000518424
0.000359072
-0.000855092
0.0318347
0.00710385
0.000675314
0.000444912
0.00579838
0.00138354
-0.0017111
0.0112309
-0.00128429
-0.00107018
-0.000397625
-0.00243347
0.000253143
-2.88711e-05
0.00240366
-0.00218146
0.0011812
0.00152725
0.000137399
0.00177955
0.000934637
-4.02974e-05
2.39353e-06
-0.000388978
-0.00081659
-0.000307987
-0.000667775
-0.00152915
0.00284976
0.00272302
0.00205364
0.0027228
0.00454568
0.00225061
-0.000399978
0.000430561
0.000193039
-0.00149647
-0.000510619
0.00215432
6.94416e-05
-0.00266439
0.00230739
-0.000248366
-0.000285098
-0.0018077
-0.000211814
-0.000691744
0.000201188
-0.00173934
-0.0017144
-0.000876859
-0.00195535
-0.00233231
0.00801155
-0.00114749
-0.00278621
0.000302419
0.000480601
-0.000996253
-0.000229824
-0.000477185
-0.0039406
-0.00152917
0.000191466
-0.00079094
0.00136932
-0.000792779
-0.00193498
0.000277274
-0.000545252
-0.00106949
-0.000227597
0.000525384
-0.00110144
0.00255555
-0.00150802
-0.00154337
0.000287131
-3.58656e-05
-0.000354035
-0.00227653
0.000348543
-0.000197596
-0.000127381
0.000127265
0.00138673
0.00105891
-0.000154088
-0.0121624
-0.01282
-0.00128364
0.00180922
-0.0283415
-0.0057255
-0.000672155
-0.000704439
-0.00121865
-0.00067061
0.000120688
-0.00982848
-0.00166751
-0.000810477
-0.000909666
-0.00129447
0.000162294
0.00070108
-0.000300761
0.000905561
0.000319572
-0.000174917
0.017917
8.89843e-06
-0.0144753
0.000637509
-0.00017669
-7.29361e-05
-3.30597e-05
-0.000685924
-0.00123828
0.00227402
-0.00015734
0.000304681
0.00044491
-0.00981033
7.35636e-05
0.000243944
0.0160929
-0.00190003
-0.00231057
0.00177582
-0.0027025
-0.0130593
-0.00116262
-0.00213021
-0.00091447
-0.00148964
-0.00193665
-0.00804924
-0.000161503
-0.00304017
0.000127003
-0.00180624
-0.000750912
0.00401558
0.000173739
0.000169816
0.000709873
-2.9353e-06
0.00231212
-0.00145103
0.000300212
0.000960767
0.0014304
-0.00417122
-0.000973765
-0.000125852
-0.00143784
-0.00112008
-0.0072355
-0.00250455
0.000326201
-3.89715e-05
-7.67197e-05
-0.000392385
-0.00412069
-0.00118211
0.0010915
0.000417209
-0.000424805
0.000790818
0.000880656
0.000802221
0.0012412
-0.00138362
-0.00258895
-0.000923079
-0.000186541
-0.000518365
-0.00195133
0.000434674
0.00202387
0.000966844
0.000307849
0.000776455
0.000287078
0.010657
0.000595798
0.00594737
0.000165125
0.000543837
-0.000223579
0.00644196
-7.10386e-06
-0.00571846
0.00263151
-0.000554505
0.00052058
0.00259435
-0.000437162
0.00266596
0.00310334
0.00337088
0.00270104
0.00301188
-0.000706489
-0.000764571
-0.000524288
-0.000845903
-0.000656074
-0.000394999
-0.00258023
-0.00102717
0.00148767
0.000254022
-7.87744e-06
0.000480233
0.000533774
0.000339719
-0.000148585
-0.000385064
-0.00342271
0.000444289
0.00446859
-0.000908096
0.000660135
0.00036033
-0.00189769
0.000823911
-0.00391184
-0.000135087
-0.00141763
0.00110168
0.000211573
0.000148246
0.000241764
0.00144028
-0.00127412
0.000409023
-0.001162
-0.000506702
-0.000131839
-0.000937857
-2.50194e-05
-0.000882378
-0.00014447
-0.000622435
-0.000785706
-0.000774323
-0.00112638
0.000170693
-0.000165366
0.000401221
-0.000209703
0.00026384
-0.00152935
7.53568e-05
0.000484706
0.000315987
0.00123731
-0.00654058
-0.000633744
-0.00820536
-0.00822446
0.000257355
0.00017622
-0.000106813
-0.00387403
-0.00142486
-0.00188202
-0.00165875
-0.000965288
-0.000310809
-0.000457162
-0.000528758
-0.0075997
-0.00042112
-0.00429835
7.16692e-05
-0.000549614
-0.00189901
0.000666097
-0.00191157
-0.00264984
-0.000736215
-0.00219857
0.000747183
-0.000930225
-0.00314914
-0.000497123
-0.000469571
3.97355e-05
0.000136346
0.000239437
0.000203794
0.000467385
0.000136659
0.000475979
-6.39774e-05
0.000272487
0.000368916
-3.33585e-05
-0.000187294
-0.000946586
-0.000906794
-0.000389956
0.000583754
0.00120972
0.0255017
0.0185533
0.011158
0.0161313
0.000480667
0.00882378
0.00606876
0.00500283
0.000361317
-0.000720749
-0.0010922
-0.000578241
-0.000431834
-0.00185887
0.00450114
0.0094973
-0.000585184
-0.00054221
-0.00066727
-0.00113795
0.00135535
-0.00110977
1.76615e-05
-0.00151477
-0.000205847
-0.00179731
-1.65943e-05
-0.000725232
-0.000127307
2.73494e-05
0.0359234
-0.000936986
-0.000429231
-0.0012109
-0.00679315
-0.00118547
-0.00185493
-0.0145724
-0.00114692
0.000108683
0.000581351
-0.000770974
-0.000975712
-0.00041497
0.00408181
0.00141739
0.0065391
-0.000604669
-0.00122284
-0.000424782
0.000981646
0.000741159
0.0170563
0.000123403
-0.00190949
0.00123626
8.38708e-05
0.000258557
-0.000288519
0.00376505
-0.000164981
0.00462326
-0.00285838
0.0025585
0.0124404
0.0196214
0.015783
0.00215977
-0.00172345
-0.00112753
0.000829175
-0.00195648
-0.000274661
0.000249204
-0.000234238
0.000385435
0.00168367
-0.000552641
0.000899258
-0.00160312
9.39113e-05
-8.5543e-05
0.000518101
-0.0010983
-0.00103883
-0.000583325
0.000254839
0.00392153
0.00216396
-0.000524823
1.49921e-05
-0.000122215
0.000381023
0.000791888
0.000484439
-0.0261805
0.00128237
-0.000528784
-0.194265
-0.326434
0.00104659
-0.0019876
0.000670302
-0.00023375
0.00045632
-0.000446754
-0.000855008
0.000627465
-0.00389802
0.00101041
6.9946e-05
-0.000499312
0.000424435
-0.000129837
0.0155702
0.00234108
-0.0140382
-0.00183839
-0.000397225
-0.000954687
7.08597e-05
0.000316349
0.000955564
0.000269639
-0.000959209
-0.000390667
-0.000502292
-0.000598625
-0.000256821
0.000793704
0.00164298
0.000454695
0.0380497
0.0440373
0.0109578
-0.00107939
0.0159318
-0.00202601
0.000811188
0.000265707
-0.00190417
0.00124571
-0.000268778
3.92721e-05
-0.000468837
-0.00072296
-0.00065629
-0.000613696
-0.000812343
-0.00204791
-0.000776456
-2.93453e-05
0.00390992
-0.000318133
-0.00117358
-0.000604969
0.00012627
6.73727e-05
-6.43965e-06
0.00156692
0.00510407
-0.000821819
-0.00075943
-0.00107604
0.00186027
0.00154599
6.11598e-05
-0.000858713
-0.000725201
-0.00553429
-0.00205718
0.00251316
0.00228887
-0.00080281
0.000333272
0.000553543
0.00129727
0.00135167
-0.000641061
-0.00155654
-0.00207192
-0.00154894
-0.00184131
-0.0208028
-0.0118379
0.0101677
0.000524662
-0.00356452
2.59624e-05
0.000114741
2.82652e-06
9.77102e-05
0.000197899
0.000242609
0.000103661
0.00114521
0.00629028
0.000516673
0.00562522
0.000454525
0.0055471
0.00399458
0.00323407
0.00231404
-0.00234078
-0.000514279
0.000276344
0.000131319
-0.00234724
-0.000730158
0.000208924
-0.00017275
-0.00197065
-0.000861971
0.000338978
-0.00105364
-0.000372448
0.000132263
-0.00113808
-0.00108249
-0.000330571
-0.000467299
0.000262825
0.000245963
-0.000110034
-0.00130903
-0.000157816
-0.00251128
0.000519
-0.00021924
0.000597288
-2.7584e-05
0.000163648
-0.000115828
0.000133373
-0.000144259
-0.000983234
-0.00100731
0.00141298
0.000264983
9.94104e-05
0.000727194
0.00105238
0.000498553
0.000772765
-0.00105464
-0.000818052
0.000103068
-0.000372653
-0.000574697
-0.00243402
-0.000769141
0.00253598
0.000437935
0.000399301
-0.00160134
0.000496835
0.000294965
-0.00027185
0.00353313
0.0017396
-0.0017261
-0.00181876
-0.000806878
-0.00101905
0.000561304
0.000313862
-0.00392974
-0.000977481
0.000545421
-0.00244815
-0.00140724
-0.000318054
-0.000151923
-0.00192284
-0.000861948
0.000761971
-8.80584e-05
0.000369961
0.00112315
-0.000590324
-0.000265073
-0.00169516
-0.00136283
0.00260165
0.000956512
0.00164282
0.000695789
0.000801774
-0.0011027
-0.00191667
-0.000711432
0.000139876
-0.000195816
-0.00135046
0.00043232
-0.00136017
0.000359432
0.000259688
-0.000878695
-0.0044986
0.00324299
-0.000900702
0.000350419
-0.000840445
-0.00109546
0.000740851
1.99714e-05
0.00164401
-0.000708009
0.000371411
-0.00376895
-0.0037411
0.0010302
0.00106228
0.00230601
0.000354723
0.0031698
0.0016205
-0.000360514
0.000137134
0.000417547
-0.000933272
6.87808e-05
-0.000620999
0.000197298
-0.000407344
0.00346165
0.000617095
-0.000129233
-0.00056872
-0.00144025
-0.00168263
0.0013727
0.00226051
0.000164056
-0.000138014
-0.00842302
0.00181472
-0.000537997
-0.00376237
-0.00134082
-0.00325424
-0.000715334
-0.000748412
0.00125988
-0.000175785
0.0012554
0.00124696
0.000888284
-0.00242412
-4.00331e-05
0.00136164
0.00095382
0.000764049
-0.00304642
-0.00261353
-0.00278118
-0.00231672
-0.000393484
-0.00313071
-0.00257181
-8.66531e-05
-0.00144697
2.26718e-05
-0.00109767
-0.000264919
-0.00243257
-0.000581897
0.00130924
0.00655423
-0.000423479
-0.00113068
-0.00163355
0.000663368
0.00126259
9.95671e-05
-0.000284931
0.00150151
-2.46219e-05
0.000123278
0.00175787
0.00701271
-0.000831764
-0.000795085
-0.00206699
-0.000947261
0.000734418
-0.00162637
0.000238862
0.00197071
1.68909e-05
0.000641591
-0.00354088
2.06693e-05
-0.000525057
-0.00152077
-0.000244297
-0.00107018
-0.000950879
0.000469393
0.000478063
-0.000438389
0.0025689
0.00258016
0.000612553
-0.000883984
-0.000667559
0.000599584
0.000202332
0.00448241
0.00280883
0.00404917
0.000825668
0.00211003
-8.03182e-05
0.0550372
0.0584417
0.0695597
0.0523022
0.0188812
0.0435098
0.000235044
-0.00181438
-0.000115804
-0.00107373
-0.00206847
-0.000463808
0.000133086
0.00153443
-0.00465146
0.00268639
-0.00165236
0.000514522
-0.0184625
-0.000494723
-6.61239e-05
-0.000950745
-7.89158e-05
-0.000312289
-0.00153983
-0.00124023
0.000642309
0.0002716
0.000124026
0.040763
0.038689
-0.000199719
0.0704072
-0.000340764
0.000436866
-0.000409362
0.00252943
-0.00733091
0.000176491
-0.00286545
-0.000728941
0.000287832
-0.000268624
0.000191842
-0.000223374
-0.000287014
-0.0203677
-0.0261743
-0.000945149
-0.00114621
-0.0310832
-0.00449813
-0.00179123
0.00155933
0.000452546
-0.000866874
-0.000155561
-0.00200759
0.000796993
0.000234205
0.000447572
0.00229146
-0.000576418
0.000268353
-0.000711959
-0.000883836
-0.00104069
-0.000678804
-0.000679097
-0.000978262
-4.66759e-05
-0.000209686
-0.000830053
-0.000895471
-2.61228e-05
-0.000979372
0.000564732
0.000166624
-0.000530781
0.000352507
-0.0018413
0.000589577
0.00201075
-0.000542314
5.77397e-05
-0.000155608
-0.000892941
-0.000840882
0.000433016
-0.00043694
3.26223e-06
-0.000576535
-0.000313458
-0.000537443
-0.0012688
0.00176379
0.00443402
0.00174695
0.00262991
-0.0452754
-0.0158748
1.22178e-05
-0.00032929
-0.000533289
0.000257165
0.000270928
-0.000617636
-0.00067543
-0.00236941
0.000565008
0.00644324
9.35045e-05
-0.000574574
-0.000704171
-0.00125214
-5.95348e-05
7.47789e-05
0.000353231
0.000836672
0.000548047
0.00112677
0.000239694
0.000779784
0.000520224
0.000237862
-0.000334835
0.000652123
-0.00138176
-0.0010033
0.000832035
0.000779231
0.00458013
0.000964875
0.00140594
0.000784521
0.000709694
0.000817381
-0.000884617
-0.00202123
0.000485382
-0.00112366
0.000549676
-0.00105448
0.000272566
0.00194707
0.00137435
0.00137088
-0.00161716
-0.00167361
-0.000273626
-0.00295694
-0.00138272
-0.00136594
-2.86804e-05
-0.00676942
0.00233777
-0.0016988
-0.000575562
-0.00152901
-0.00221558
0.00034459
-0.000455451
0.000615246
0.000463621
-0.000772338
0.00288691
0.000930951
0.00834403
-0.000678719
0.000217046
0.00291037
0.00476643
6.79774e-05
-0.0010376
0.000354168
-0.000892814
-0.00134986
0.0025275
0.00179282
-0.000675745
0.000462442
0.01409
0.0043411
-0.00277599
-3.92592e-05
0.0634424
-0.00177099
-0.00511731
0.00461241
0.00743471
0.0215521
0.0203946
0.000150502
9.92569e-05
-0.00066028
0.00543213
-4.82665e-05
0.00163723
0.00688002
-9.63822e-05
-7.4832e-05
0.000510292
0.000530901
0.000125537
0.000366839
-0.00496736
0.0038513
-0.000398352
-0.00091037
-0.00145188
0.0021837
0.225704
0.113609
0.215968
0.0512242
0.0598635
0.0516702
0.041918
0.0268584
0.0530389
0.000993711
-0.00187428
-0.000322271
-0.00331874
-0.000878401
-0.00117332
0.000861575
0.00115332
-0.00127497
-0.000851568
-0.00200257
3.33017e-05
0.00204384
0.000182525
-0.00104153
-0.000936924
-0.00118612
0.00096982
-0.000815914
0.000535218
-0.00466435
-0.00128413
-6.59126e-05
-0.00193192
0.000127788
1.83925e-05
-0.000238957
-0.00108652
0.000480873
-0.000841513
-0.0021531
0.000132592
7.06468e-05
0.00038269
2.4091e-05
-0.00144293
-0.000462835
0.00157062
9.87462e-05
0.000407201
0.0137292
-0.000253101
0.00132171
0.0102591
0.0577242
-0.0029132
0.000648621
0.0224539
0.0141648
-0.000109244
0.000326761
0.00061526
-0.000329548
0.00486319
-0.00158484
1.97102e-05
-0.00163297
0.0149474
-0.00605405
0.0123011
-0.00648639
-0.00575142
0.0124969
-0.000880164
0.0112115
-0.00153755
0.000991457
-0.000247011
2.69052e-05
-0.00084491
-0.0023414
-0.00206197
0.000723949
-0.00251703
0.000168039
-0.00168388
-0.00115483
-0.000495748
-0.00176534
0.000279486
-0.00152496
0.000106455
-0.00145007
1.60717e-05
8.99176e-05
-0.000452398
-0.000592494
-0.000361839
0.00158583
-0.000240737
-0.000172419
3.28355e-05
-0.00248476
-0.00129599
-0.000180351
-0.00075474
0.000351586
-0.00188031
0.000684119
-0.000631771
-0.000547728
-0.000929701
-0.00285134
-0.000971506
0.00011147
-0.00261265
0.00105607
-0.000223791
-0.00300764
-6.4692e-05
3.34519e-05
0.000213871
-9.49837e-05
0.00177186
-0.000158232
-0.000482626
-0.000229971
0.00615525
-4.24506e-06
-0.00082538
6.87492e-05
0.000111401
-5.63529e-05
-0.00166818
0.000207621
-0.0770107
0.000452937
0.00364342
-0.0439173
0.00266331
0.00031787
-0.000816728
0.000108542
5.93806e-05
-0.00181686
0.000255207
0.000400045
-0.00110047
0.000249695
0.00025396
-0.00236668
0.000449179
-0.00138746
-0.00144507
0.00124375
0.00136129
-0.0010467
0.00053887
0.000726526
0.00233778
-0.00151912
-0.00109774
-0.000614804
-0.00100142