/*--------------------------------*- C++ -*----------------------------------*\
  =========                 |
  \\      /  F ield         | OpenFOAM: The Open Source CFD Toolbox
   \\    /   O peration     | Website:  https://openfoam.org
    \\  /    A nd           | Version:  11
     \\/     M anipulation  |
\*---------------------------------------------------------------------------*/
FoamFile
{
    format      ascii;
    class       surfaceScalarField;
    location    "20";
    object      phi;
}
// * * * * * * * * * * * * * * * * * * * * * * * * * * * * * * * * * * * * * //

dimensions      [0 3 -1 0 0 0 0];

internalField   nonuniform List<scalar> 
37779
(
-0.00881027
8.9576e-05
0.0196141
-0.0109042
0.0141816
0.0315572
-0.0408669
-0.00486532
0.0144811
0.0988204
-0.117557
0.00425697
-0.0271867
0.0159842
0.016046
-0.00485939
-0.0125484
0.0201191
0.00661488
0.0353958
-0.0048778
-0.00200848
-0.028483
0.00262071
0.00554336
0.00144949
-0.00969319
0.00224048
0.0155301
-0.0264655
0.00869909
-0.00766971
0.00515179
-0.00549145
0.00796335
0.0157529
-0.00709616
0.00889952
-0.0175545
0.00384726
-0.0149584
0.0236128
-0.0125518
0.0317729
-0.0242026
-0.0118066
0.00424008
0.000790191
0.00115686
-0.0107642
0.00315095
-0.0121882
-0.0247154
0.0337231
-0.0278229
0.0126851
-0.0143639
0.0294808
0.0136745
0.0607131
-0.00358051
0.0946062
-0.020695
-0.0703343
0.0110798
0.00611277
-0.00161455
-0.0155895
-0.0386042
0.0796739
-0.0445057
0.00347568
0.00111694
0.0300754
-0.025349
-0.00585162
0.0247004
0.0237385
-0.03449
-0.0139584
-0.00788721
-0.0164317
0.0207782
0.00343087
-0.0762244
0.067705
0.00787405
0.000640107
-0.0461603
-0.0539305
0.0662645
0.0338656
-0.00692257
-0.00867547
-0.0114404
0.00191869
0.00114468
0.00836581
0.0108631
-0.0217858
0.0135302
-0.00124086
-0.00051199
-0.000392027
0.00214499
-0.00172624
-0.000903449
0.0013874
-0.0016932
-0.00122738
0.00240655
-0.00542868
0.0335514
0.0121734
-0.00293984
-0.000482043
-0.0328021
-0.0027115
0.000215531
0.0353112
0.00382617
-0.00630149
-0.000465851
-0.015188
-0.0575162
0.089038
-0.0163213
0.038903
-0.0838468
0.0311564
0.0138122
-0.0169531
0.00293362
-0.00242169
0.000816449
0.0355826
-0.0099939
-0.0264087
0.0228268
-0.0136731
0.0131067
-0.0222627
-0.0400322
0.0123573
0.0665891
-0.00421269
0.0373323
-0.0320096
0.0441701
-0.0559139
0.059169
-0.047433
-0.00249367
0.00811843
-0.0132391
0.00759246
0.0216992
0.0353309
0.00357979
-0.0606019
0.0283747
-0.0230115
-0.00651154
0.00113629
0.0075645
0.0124035
-0.0224761
0.00470126
-0.00381587
-0.0150193
0.0141678
0.000510549
-0.00998556
0.0118861
-0.00242591
-0.00112769
0.00220332
0.00609775
0.000946509
0.00191311
-0.00398612
0.0390054
-0.0347575
-0.00105103
-0.003201
0.00786389
-0.0604185
0.0373711
0.0151918
0.00953925
0.0255903
0.00802939
-0.0431606
-0.0200138
0.013718
5.85463e-05
-0.056945
-0.0191939
-0.0592611
-0.0234801
0.0805108
0.00222423
0.0251802
-0.00597439
-0.00813225
-0.0697526
-0.034723
0.0644564
0.00819662
0.0120325
-0.0107265
-0.00943818
-0.00240938
0.0132948
-0.0159672
0.00508577
-0.0559606
0.0390633
0.0236504
-0.00674281
-0.0306217
0.0126084
-0.000371593
0.0184164
0.00501941
-0.0021386
-0.023241
-0.0213256
0.0502717
-0.00571109
0.107374
-0.0247011
-0.0368316
-0.0458441
0.00109805
-0.0212789
0.0377213
-0.017549
-0.00671421
-0.0388819
0.0129176
0.0326857
-0.0665416
-0.00195983
-0.00125513
-0.0239684
-0.0211322
0.0279712
0.0171308
0.00884473
-0.0547346
0.0236722
0.0222167
0.0367545
-0.00156918
-0.034377
0.0106623
-0.00142134
-0.0148105
0.00556032
0.0468734
-0.0595628
0.0166391
-0.00393971
-0.0181783
0.0253913
-0.00323149
-0.00398172
-0.0177746
0.0183438
0.0207632
-0.0213346
-0.0120532
0.0157869
-0.000910332
-0.00282185
-0.00690668
0.00138233
-0.00652675
-0.0170169
0.0265143
-0.0131882
0.0036814
0.0210638
0.0153309
-0.00206877
-0.0620549
0.0523966
0.0217969
-0.0121478
0.010193
0.00758115
0.00182788
-0.0130181
0.0324401
-0.00805692
-0.0113616
-0.0380075
0.00633551
0.0279829
0.00369152
-0.0481406
-0.165703
0.0928125
0.0117921
-0.0371316
0.0190857
0.00625541
-0.00266556
-0.00142972
-0.00711633
0.0112058
0.0545322
-0.0528483
0.0180898
-0.0197695
-0.0291416
0.010431
0.0344627
-0.0943484
-0.053955
0.0931773
-0.0410431
0.0307623
0.023482
-0.0132127
-0.104953
0.043969
0.103071
-0.0420542
-0.0405754
0.160067
-0.0348931
-0.0845833
0.123925
0.0282593
-0.0448103
0.013732
-0.0141445
0.00695659
-0.00656194
-0.03503
0.0599708
0.0171476
-0.0420924
0.015843
-0.00667445
0.00866002
0.0197889
-0.0217764
0.0762048
-0.0615017
-0.000220868
0.0555102
-0.061502
-0.012189
0.0374563
0.0170026
-0.0123899
-0.0420584
-0.000560558
-0.00400351
0.00771078
-0.00319531
0.0159476
0.0105076
-0.00362545
0.0376434
0.0249024
-0.0271301
-0.0186396
0.105218
-0.0273657
-0.00411476
0.0293963
-0.0358005
0.0105178
-0.0117586
-0.0129732
0.020644
0.00408684
-0.0248059
0.134697
-0.0594614
-0.00662081
0.020353
-0.0106038
-0.0903546
-0.042054
0.0983109
-0.000658134
-0.0126593
-0.00187361
0.0152317
-0.000185584
0.00946402
0.00894502
-0.0182181
0.0243059
-0.043497
-0.0105146
0.0296957
-0.0172176
0.0119861
0.0158954
-0.0188202
0.0305203
-0.004157
-0.00754379
0.020982
-0.0391372
-0.000666713
0.00254962
0.0427837
0.00704995
-0.0399918
0.124978
-0.0544668
0.0322724
-0.0512834
0.0598175
-0.0387563
0.0637931
0.028294
-0.0164505
0.00847552
0.00741274
0.00068134
-0.00176865
-0.00374164
0.00482695
-0.0110474
0.0251271
-0.00174109
-0.000729006
0.000697125
-0.00809537
0.00786473
0.0245336
-0.024305
0.00712964
-0.0456619
-0.00760507
-0.0011813
0.0287518
-0.00388753
-0.0236854
-0.000920077
0.0518414
-0.0050178
-0.0459081
-0.0119651
-0.00502162
0.012377
0.00460619
0.0636347
0.000384246
-0.0435264
0.0080935
0.00307508
-0.00865608
0.0156457
0.00196214
0.0107679
0.0296062
-0.0371814
0.0426213
-0.0350452
0.00436975
-0.0216164
0.0123718
0.0101228
-0.00665748
-0.00755956
0.00408663
-0.0220617
0.00272291
0.0213385
-0.00204305
0.000256667
-0.0048635
-0.00117944
0.00573078
0.0490139
-0.0594443
0.0196119
-0.104518
0.0219912
0.0629058
-0.00247067
0.00365839
-0.00512162
0.0039337
-0.0159761
0.00244083
0.0110645
0.0546906
0.00293129
-0.0489707
-0.00865371
-0.0106269
-0.0238919
0.0144958
0.0200121
-0.00769276
0.0259294
-0.0195202
0.00128603
0.00926967
-0.0444683
0.018177
-0.0248104
0.0396507
-0.0099192
-0.00491984
-0.00875946
-0.0163886
0.0716103
-0.0464593
-0.0050076
0.00774802
0.00619206
-0.0089328
-0.0141717
0.00512695
0.00403681
0.00711874
0.0069154
-0.0151221
-0.0623544
0.0493032
0.0281755
0.0222634
-0.0494789
0.0205061
0.0342546
-0.0215452
0.0247427
-0.0408012
-0.00212301
0.032295
0.00234726
-0.00258555
-0.00417196
0.00440943
-0.00611277
0.0125612
-0.00410218
-0.00589017
0.00623231
-0.030732
0.0303929
0.0177175
-0.0151045
-0.00245093
-0.000172495
0.00475257
0.0323767
-0.0180639
-0.0190493
0.0106074
0.00631019
-0.00432032
-0.0125915
-0.0493337
0.0115893
0.0240344
0.0138531
-0.0116617
-0.0255137
0.0194068
0.00209028
0.00217823
-0.00204443
-0.00222634
0.00299864
-0.0016975
0.000788953
-0.00114664
-0.157768
-0.000795265
-0.00139438
0.00435909
0.00678612
0.00321422
-0.00700289
-0.0345753
0.01832
0.00486387
0.0113899
0.00475472
0.0012351
0.00047633
0.000105344
0.00393122
-0.00451246
0.0199834
-0.0226703
0.0301346
-0.0274803
0.00351949
-0.0084574
-0.00868033
-0.0073489
0.00296
0.00790797
0.00164671
-0.00961313
0.00061746
0.0118351
-0.00953988
-0.00986207
0.00756556
-0.0140626
-0.0213715
-0.0184658
-0.058819
-0.0502878
0.0704974
-0.118093
0.0121346
0.00674257
0.0992169
-0.0167931
-0.0091775
0.00666534
0.0526815
0.0132787
-0.0616182
-0.00433712
0.0557086
-0.023417
0.00332205
-0.0355865
-0.000546427
-0.140154
0.107902
-0.0171562
0.0170326
0.0107282
-0.0141031
0.0039949
-0.00186677
-0.0402457
0.0364602
-0.00810181
0.0118796
0.197379
-0.0544687
-0.0848907
-0.0580288
0.0322676
-0.0252807
0.000620153
-0.00760767
-0.0142508
-0.011777
0.0128142
0.0132017
-0.00335196
0.0261022
0.00843398
-0.0136837
-0.0327516
-0.00180049
0.0136656
-0.0230677
0.0112023
-0.0256414
0.0193943
-0.00595459
0.0102347
0.0167951
-0.0139444
-0.0131413
0.0297039
-0.033844
-0.0330301
0.0371765
0.0507984
0.0207802
-0.0255734
-0.0459736
-0.00313578
-0.0139131
0.0143673
0.0219883
-0.0308637
0.00473282
0.00414618
-0.0332986
0.0313614
-0.00837564
0.0103047
0.00892099
0.00916773
0.00390169
0.0121107
-0.00286268
-0.0018423
-0.00740197
0.0141846
0.00751175
0.00327144
-0.0249831
0.0076616
0.00347013
-0.00109529
0.00363157
-0.00600824
0.00137732
-0.000770183
0.0211604
-0.00222939
-0.0100071
0.0339229
-0.0832091
0.0284534
0.0208266
-0.0240684
-0.0357653
0.0505063
0.00932522
-0.0240831
0.0169127
0.0122903
-0.00507266
-0.208784
-0.061238
0.165894
0.0160934
0.076635
-0.102981
0.0102357
-0.00709511
0.00935963
0.00724594
-0.00951638
-0.0105434
-0.0018327
0.0148037
-0.00242056
0.0384874
-0.0135459
0.0263366
0.000476986
-0.0185927
-0.0374173
0.0166832
0.00859793
0.0121137
0.0368534
0.0334342
-0.0476875
-0.0226043
-0.0238294
0.0686285
-0.00677928
-0.0380083
0.0119264
0.00391572
-0.0229774
0.00710794
-0.00501639
0.00318154
-0.0203133
0.0270552
-0.0341866
0.00324272
0.00387188
-0.0809668
0.0775354
0.0105749
0.00011173
-0.0103999
-0.0126842
0.0229691
0.00836164
0.0196434
0.00874004
0.0167627
-0.0291829
0.00715334
0.00526676
0.0301207
-0.00953728
-0.0038175
-0.0163832
0.00538533
0.00479519
-0.00639425
-0.00394523
0.00555566
0.0222269
0.0112846
-0.00338991
0.0158428
-0.0331458
0.034807
-0.0175016
0.0170213
-0.023574
0.0408061
-0.0720149
0.0405999
-0.0144462
0.00135853
0.00164663
-0.020322
-0.0297247
0.0663123
-0.0162677
0.00880799
-0.013827
0.00343
0.00158476
0.0236186
-0.0444542
-0.0328639
-0.00505453
0.0377386
-0.0163128
-0.016373
0.0270675
0.00535808
-0.00697312
-0.000546009
-0.00632574
0.00158523
-0.015661
0.00709556
-0.0426668
0.0483899
-0.0297009
0.00386986
-0.0277082
0.0508902
0.0759088
0.0383014
-0.0213562
-0.0928255
-0.0139903
0.00514997
-0.000256765
0.00910274
-0.00417858
0.00611182
-0.0175719
0.0156213
0.0361889
-0.00985896
-0.0267357
-0.0104384
0.0142878
0.0201158
-0.0239693
0.00768281
0.00157445
-0.0256133
0.0163468
0.00349587
0.00820815
0.0012512
-0.0222048
0.0127462
0.00813587
-0.00451765
0.00458992
0.0169383
0.0144302
0.00488709
0.000306099
-0.00227062
-0.00292145
0.0131337
-0.00813028
-0.023514
0.0185136
-0.00799935
-0.03009
-0.0029619
0.00122411
-0.000633236
-0.00116332
0.000572149
-0.000119605
0.00349143
-0.0442372
-0.0346698
-0.0154386
0.0316939
-0.0222862
0.0102932
-0.0196732
0.0291291
-0.00673956
-0.0274438
-0.0445969
-0.0036672
0.026721
-0.0114839
0.0409929
-0.00373623
0.0210181
-0.00174234
-0.0211968
-0.026644
0.0166752
0.031167
-0.0144598
-0.00849144
0.00573263
0.0119833
-0.00313848
0.00945447
-0.0183142
-0.0233266
0.0165334
0.0287392
-0.0219803
0.0274927
-0.0506639
0.0384929
-0.0153507
0.0122483
0.011915
-0.0077015
-0.0164661
0.00479441
-0.0127409
0.00805119
-0.0456397
-0.0499806
0.0617951
0.0338133
0.0215897
-0.0230558
-0.017846
0.0193029
-0.155381
-0.00583226
0.0545861
0.106628
0.0192358
-0.014101
-0.00842874
0.0032803
-0.0509412
0.0395406
0.015238
0.0101889
-0.00366805
0.0128558
-0.0193844
0.0200066
-0.0121388
-0.00849822
-0.00331903
-0.0207501
0.0176457
0.0064679
-0.0111753
-0.00734744
0.0565249
-0.0379996
0.028986
-0.0418933
0.0593331
-0.0464258
-0.0168662
0.0344216
0.00056925
-0.0181324
0.110631
-0.0742291
0.00534297
-0.0417491
0.0175216
-0.0162477
0.00738691
-0.00867048
0.0107335
-0.0147484
-0.0029461
0.00695096
0.0991664
-0.062776
-0.159956
-0.0584397
0.021685
0.0248616
0.0119447
-0.00624819
0.0067217
-0.00823272
0.00774764
-0.000348361
-0.00128073
0.00023935
0.00138896
0.00772251
-0.0226601
0.00868659
0.00205482
9.04585e-05
-0.00249514
0.0039176
0.0219288
0.0262
-0.0520522
0.0917014
-0.0708578
-0.0360273
0.0204943
0.0458898
-0.0222203
0.00328621
0.0113222
-0.0378575
0.0551813
0.0382932
-0.0175438
-0.0327168
0.000528644
-0.00239031
-0.0371564
0.0283506
0.0339924
0.0118769
-0.00176897
-0.00447071
-0.0056471
-0.00777369
0.0107487
0.00889613
0.00382625
-4.33991e-05
-0.0069975
0.00321806
0.00324176
-0.00784587
-0.00244318
-0.0148553
0.0185554
-0.00124996
-0.00321535
-0.00814279
0.00891731
0.0174107
-0.0332371
-0.00824397
0.010872
-0.00423628
-0.00280648
-0.0066574
-0.00276604
-0.00412364
0.00510884
0.00125157
0.0016512
-0.00294581
-0.0170112
0.00679881
-0.0119198
-0.00880633
0.0162451
-0.00478473
-0.0099036
0.0263511
-0.00716398
-0.0211903
0.0019997
0.00695962
0.00124784
-0.005492
-0.00271217
-0.00738441
0.00590857
0.008439
0.0176362
0.0221756
-0.00728197
0.00695799
-0.0168374
0.0161109
-0.00621052
-0.0112826
0.00762324
-0.0132444
0.0168989
0.000621785
-0.000260694
0.0103121
0.0103511
0.00289409
0.00990283
-0.0231528
0.0140288
-0.0394261
0.0349345
-0.00710505
0.0152321
0.00957891
-0.00551939
-0.0064828
0.0201092
-0.0190642
0.0551512
-0.0700689
0.0680088
-0.0589755
-0.0343132
0.0305667
0.0319462
-0.0503822
-0.0121234
0.0230977
0.0106222
-0.0120989
-0.0417638
-0.00767354
-0.00413232
0.0535647
-0.0330084
-0.0143152
-0.0412219
0.0885257
0.00755891
7.47372e-05
-0.00291977
-0.0192985
0.0150711
-0.000996819
0.00524231
-0.1228
0.179423
0.0295612
-0.0302102
0.0156062
-0.0212653
0.021031
0.0158246
-0.0155853
-0.000576585
-0.0131079
-0.00120889
0.014894
0.091783
-0.0118765
-0.0652688
-0.0146415
-0.0382156
-0.0578984
0.0266053
-0.00553152
-0.00660013
-0.0144709
0.00161184
0.00205666
-0.0110303
-0.0617804
-0.02877
-0.027547
-0.0391885
0.0179504
0.0759119
0.00604834
0.00115434
-0.00594362
-0.00126471
0.0614687
-0.0499866
-0.024495
-0.036914
-0.0345614
0.0557262
0.0157472
0.00529974
-0.0421198
0.0436671
-0.00684502
0.00709782
0.0106977
-0.0124898
-0.0311859
0.0269188
0.00235993
0.0485132
-0.00178494
-0.00848846
0.00359689
-0.000985862
0.0293665
-0.0259263
-0.00295458
0.065733
-0.027516
-0.00480624
0.0259835
0.00633593
0.00189942
0.000927346
-0.00146067
-0.00136453
0.00172947
-0.000614001
0.00078539
-0.00305911
0.00666559
-0.00942782
-0.0144189
0.0125432
0.0113347
0.021221
-0.0253766
0.0230858
-0.0189265
0.037749
-0.0388466
-0.0208942
0.0219892
-0.0103988
0.0029348
-0.041785
-0.011243
-0.0193895
0.0040318
0.0266589
-0.0259694
0.0173711
0.0245448
0.0213
-0.0191666
0.0195774
-0.00467588
0.00438646
0.0325564
-0.0422068
0.129486
0.00209779
0.0052558
0.0118392
-0.0192201
-0.00290869
0.00535588
-0.0903624
-0.0029494
0.0201834
0.0731139
-0.0128977
-0.0304818
0.0221162
-0.0413409
0.0172386
-0.000122336
0.0104419
-0.0258387
0.0139641
0.017439
-0.017268
-0.00518833
0.00501231
0.00371423
0.0173616
0.00207969
-0.0319898
-0.0191648
0.0729785
-0.0218398
0.0798405
0.0421127
0.0102936
-0.114745
0.0623467
0.0209117
0.0231404
0.0102748
-0.00607799
0.00602117
-0.0102359
0.0983885
-0.0730269
0.00424452
0.0113358
0.0104634
-0.0220305
0.000229196
0.0384464
-0.0569492
-0.0109988
0.0295193
-0.0597704
-0.0223404
0.0415468
0.0839484
-0.0695233
0.061907
0.060512
0.0524084
0.0222227
-0.0231473
-0.051487
-0.00618703
-0.130707
0.0799395
0.00768621
-0.0122002
0.00517263
-0.00065861
-0.0131389
-0.00132789
0.00471289
0.00975418
0.0148829
-0.0205149
-0.0218886
-7.74041e-05
0.00745191
0.0125259
-0.0198725
-0.00919888
0.00165612
-0.00132787
0.00887165
-0.0263014
0.018244
0.0276903
-0.00736542
-0.0126355
-0.00400176
0.00706354
-0.0152624
-0.0153057
-0.00473979
0.0472735
0.00917826
0.0326093
-0.0493109
0.0167387
0.0130119
0.0195456
0.0938706
0.0184115
0.0215485
-0.0394865
-0.00727003
0.0252039
-0.00246441
0.0423881
0.000642965
-0.0405242
0.00236863
-0.0175615
0.00108743
-0.0139466
-0.0162277
0.0376117
-0.00743093
-0.0187075
-0.00888202
0.0462475
-0.0183079
-0.00324269
-0.0292814
0.0189367
-0.0314207
-0.00372289
-0.000272427
-0.00317244
0.00716457
0.00402043
2.45829e-05
-0.00408626
4.27269e-05
-0.00509264
0.00342744
-0.00842917
0.0100846
8.06787e-05
0.00124233
-0.00226117
0.000937887
-0.0053933
0.00105711
-0.00905821
0.0133872
-0.0926753
-0.0267033
0.0722911
-0.0238141
-0.0188028
0.0820269
-0.0393785
-0.0163781
0.00180241
0.0316753
-0.0171112
-0.00689882
0.00437462
-0.0200139
0.022529
-0.000595187
-0.000128727
0.000754097
-2.61854e-05
-0.0015295
-0.000583863
0.00104369
0.00107697
-0.00227674
-0.00260319
0.00213405
0.00273779
-0.0622957
0.125939
6.63403e-05
-0.0637115
0.00687208
-0.00247368
0.00700909
-0.0114135
0.00370691
-0.0035969
-0.00699703
0.00686219
-0.00826573
0.019906
0.0126566
0.00768571
-0.0116265
-0.00195029
0.000106566
-0.00104142
-0.00113425
0.00207439
-0.000913366
-0.00363635
0.0022644
0.000632984
-0.00174324
0.000315759
0.000763798
0.000378845
0.00105324
-0.000501739
-0.000542019
-0.00348608
0.00394881
8.00771e-05
-0.050125
0.0285179
0.0502415
0.0295468
0.00795651
-0.0233287
0.00835988
0.000578428
-0.0119443
0.00301333
0.00480654
0.0111869
-0.00762588
-0.00923237
0.0141522
-0.00883444
0.00394175
-0.0140666
0.0201055
-0.017169
0.0110705
-0.00181541
-0.027545
0.0502675
-0.0209158
0.117754
-0.119641
0.0440105
-0.0700473
-0.0301222
0.0822277
0.01794
0.0760488
0.0811368
-0.0266258
0.084776
0.000137375
-0.00894279
-0.0704584
0.0309919
0.120594
0.0409077
-0.0265935
0.0406059
0.00242191
-0.0120414
0.0593169
0.00144891
-0.0217623
0.023075
0.012315
0.00440428
-0.0106429
-0.00608847
-0.0104387
-0.0174627
-0.00952446
0.0639694
0.0135687
-0.0654081
0.0301767
-0.031971
-0.0132931
-0.00676112
0.0312373
-0.0332361
0.0396323
-0.0079939
-0.0344749
0.0028341
0.0162798
-0.00141685
-0.0350925
0.0202313
0.0183902
-0.00714854
-0.0124262
-0.176683
0.059014
-0.0428309
0.160503
0.0292944
-0.0248217
-0.0151776
0.0107098
-0.00146026
-0.00920463
-0.000865426
0.0115317
0.0238478
-0.0121769
-0.0131323
-0.0188814
-0.00989324
0.0197163
0.00904247
-0.00195211
-0.0271028
0.0408509
-0.0117762
-0.0318806
-0.027835
-0.0241965
0.0174487
0.0391453
-0.0324067
0.0711727
0.0209381
0.042584
-0.0151708
0.0321265
-0.00084444
-0.0161146
-0.00118348
0.0156853
0.0142344
-0.019163
-0.00683068
0.0532043
-0.0385002
-0.0346865
0.0199739
-0.0529793
0.0784935
0.0118799
-0.104435
0.0637616
0.0287843
-0.0438781
0.0282901
0.0253702
-0.0098531
-0.0397367
0.0131089
-0.0152367
-0.0462556
-0.0196741
-0.0410133
0.0209441
-0.0118441
0.0278393
0.00478467
-0.0207803
0.0536104
0.00526993
-0.0429273
-0.0159584
-0.0021348
0.00595573
-0.0156649
0.0243832
-0.0246968
0.00397613
-0.00810512
0.0019941
0.000760286
-0.00757382
-0.00716479
-0.00200885
-0.00510898
0.00165034
0.00542696
0.0277001
0.00188605
-0.0175281
-0.0120654
-0.0017348
-0.00135807
0.0013507
0.00173818
0.00751126
-0.0023529
-0.00526016
9.48869e-05
-0.0214124
-0.00155928
0.018781
0.00334892
0.00796091
-0.00380615
0.00466107
-0.0368455
0.0177129
0.0144859
0.0685317
-0.026579
0.0114917
0.0109756
-0.137495
0.0533235
-0.0485
-0.00477856
-0.142972
0.0102579
-0.0520693
0.0926902
0.0127172
-0.0585181
0.00173252
-0.000909998
0.0373177
-0.032385
-0.00403456
0.0277498
-0.0871762
0.00857751
0.00456933
-0.00107712
-0.0170732
-0.0347528
-0.0487298
0.100544
-0.0314066
0.0721338
-0.0115985
-0.0152951
0.00706583
0.0456795
-0.0374536
-0.00199517
-0.0323144
0.0474103
-0.0131024
-0.0230878
0.0158494
0.0194861
0.0133645
-0.0179386
-0.0311924
-0.00585942
0.0322689
-0.021828
-0.00456869
-0.0117706
0.00284024
0.00695177
-0.0622873
0.125299
-0.0369833
-0.0175536
0.0222217
-0.0812075
0.0366947
0.0412497
0.0032837
-0.00105903
0.0197235
-0.0164417
-0.00222409
-0.00143922
0.0173499
-0.0169693
0.0273874
-0.00314445
-0.0487746
0.0411795
0.00166327
0.00593758
0.0225013
0.00102326
-0.0159042
0.0490686
-0.0285987
0.0326172
-0.179956
-0.0609371
0.0317911
-0.0279474
0.0260524
-0.0299015
-0.131084
-0.0281201
0.115709
0.0435111
-0.0426336
0.0588547
-0.00301131
-0.0050372
0.00328429
0.00476084
0.00404814
-0.0112032
0.00414203
0.0271091
0.0146756
-0.0122158
0.00158566
0.0477669
0.00389294
-0.0271688
-0.0244912
-0.0745912
0.12279
0.000868372
0.0133042
0.0241279
-0.0297335
0.0212258
-0.0167729
-0.018677
0.0142377
0.0482065
-0.0670118
-0.00979411
-0.00636672
0.0205691
-0.0151351
0.000924809
0.00286927
0.0166599
-0.0359641
0.0164631
0.00678996
-0.000184445
0.0653126
-0.0169577
-0.0119261
-0.0364372
-0.051635
0.0252508
0.0342765
-0.0464192
-0.0344533
0.0183915
-0.00991104
-0.0548675
-0.0451416
0.0483736
0.0122006
-0.0123329
-0.0042167
0.0043486
-0.0115063
0.0120689
-0.000472893
-9.04525e-05
-0.00140432
-0.00275808
0.012725
0.00405111
-0.00457604
0.0236364
-0.0368702
-0.0401573
-0.011493
0.0228079
0.00848593
0.00179799
-0.00609977
0.0162889
-0.0038165
0.0387458
-0.00927379
0.0171307
-0.00212263
-0.00997186
-0.00503748
-0.00192416
0.00377795
-0.000582479
-0.00126966
0.000384209
-4.12918e-05
-0.000231321
-0.000942189
0.00280582
0.00553199
-0.00740984
0.0337669
-0.0133442
-0.015684
-0.00209905
0.0119802
-0.00803752
-0.00185282
0.00465696
0.000756596
-0.001982
-0.00343247
-0.022044
0.0324694
-0.0307392
-0.00881486
0.0197537
-0.00222611
-0.00871521
0.000420932
0.00133136
-0.0228767
-0.00918282
-0.0146017
-0.000414511
0.0250591
-0.0374453
-0.00631846
-0.0207806
0.0162102
0.0108738
0.0227398
0.0553195
-0.0573161
-0.0207488
-0.0152181
-0.00118587
-0.000931392
0.0173317
0.0306684
0.00727973
-0.00718843
-0.0125778
-0.00381862
0.106856
-0.0316591
-0.0158829
0.0940941
-0.0359563
-0.00482768
-0.0358488
0.0419237
-0.00124631
-0.00558998
0.0119633
-0.0111994
0.0132395
-0.0276072
0.0310105
-0.0233604
-0.00378729
0.018417
-0.00962459
-0.0050008
0.0161098
-0.0253696
0.01644
-0.00717885
0.00109766
-0.00170986
0.00909839
-0.00849039
-0.0110954
0.00620185
0.0131596
-0.00826648
-0.0333375
0.00540151
0.00863688
-0.0473442
0.0110492
-0.0050467
-0.0535945
0.00358877
-0.00926294
0.00258575
-0.00152004
-0.0049738
0.00404509
0.0319422
-0.00934908
-0.0250643
0.00246841
-0.108012
-0.103171
0.0867956
-0.0521774
0.0717333
0.0769688
-0.0965224
-0.0611838
-0.0364991
-0.0103252
-0.0310107
-0.0823479
0.00608185
-0.00164893
-0.00323679
-0.00118923
-0.00184718
-0.0285669
0.019384
0.00985201
-0.0255752
-0.00365494
8.29559e-05
0.000854773
-0.00108954
0.000151343
0.000480083
-0.000932271
0.000534743
0.012386
-0.00836609
-0.00854944
0.00453004
0.0575591
-0.0275118
-0.00819086
-0.021839
0.0048449
-0.0411719
0.0110478
0.0215046
-0.0467235
-0.02995
0.0551706
0.0155791
-0.00525463
-0.00923352
-0.017257
0.0644362
-0.0642621
-0.0397386
0.0207081
-0.0247038
-0.00220723
-0.0014604
-0.0204029
-0.0429054
-0.0130608
-0.0323057
0.000556962
-0.0112362
0.0128047
0.0277737
-0.0328068
-0.00776431
-0.0055692
-0.037685
-0.028771
-0.0403144
0.0219644
0.0652498
-0.0468932
-0.000652558
0.0308208
0.0255681
-0.0148736
0.0661631
0.0404966
-0.00209951
0.000579738
0.00773485
-0.00621582
-0.00993264
0.00512591
0.00270627
0.0154049
-0.00448367
-0.0101611
-0.0350518
0.0165586
0.00612533
-0.00677942
0.00586855
-0.00521484
0.00379476
-0.0076048
0.0441118
-0.0420123
-0.0310673
0.0289766
0.0039532
0.0334159
-0.0382939
0.0305042
-0.0279937
-0.0273236
0.024814
0.0340657
0.015251
-0.0240522
-0.0252519
-0.0155467
0.00198932
0.0112123
0.00236438
0.0120061
0.0122121
0.00339287
-0.0274842
0.00978942
0.0179147
-0.0168487
0.0233246
-0.0222084
-0.0245155
0.00993448
0.0250805
0.0229055
-0.057917
0.00550866
-0.00693417
-0.0184392
0.0198673
-0.013132
0.00746578
-0.0110004
0.016646
0.00939864
-0.0016203
-0.0123147
0.00453557
-0.0145778
0.00556694
0.0184082
0.0675616
-0.0526162
-0.0165661
0.02858
0.0244029
-0.0114285
-0.0479527
0.00567665
0.0537238
0.119151
-0.0318311
0.120732
0.026999
0.0110577
-0.00244395
-0.014233
0.00563229
-0.00295671
-0.0132959
0.0092224
0.00701951
0.0169688
0.00255756
-0.00445109
0.0091324
-0.0400362
0.0581129
-0.0272553
0.00636263
-0.0703616
0.0220695
0.0419343
0.0206905
-0.0174064
-0.00265348
-0.000597963
0.0397698
-0.0443826
-0.0315378
0.036153
-0.0594982
-0.0459026
0.117256
0.00186614
0.00580234
-0.00147714
-0.0034247
0.00998829
0.0150543
-0.0216063
-0.00314402
0.00090069
0.000447625
-0.00575702
-0.00142069
0.0067289
-0.0149034
0.0101344
0.0455457
-0.0396741
-0.021045
-0.0318676
0.0154143
-0.016856
0.0575469
-0.00668988
-0.0067212
-0.0539959
0.114546
-0.0226245
-0.00664696
-3.22792e-05
-0.000284597
0.00157745
-0.00125752
0.000900229
-0.000654467
-0.000277064
0.10318
0.0268675
-0.01942
0.00678424
-0.0204713
0.0183557
0.0872245
-0.0128476
-0.0216529
-0.0527201
-0.0036928
0.0251289
0.00923946
0.02912
-0.0591873
0.0282493
-0.0427988
-0.0906236
0.0899048
0.00587727
-0.0320366
0.00227078
0.0128571
0.00702168
-0.0221955
0.0070188
0.0166519
0.00688906
-0.0305476
0.00598526
0.0401554
0.00918392
0.0115363
-0.0123145
-0.00839902
-0.00609669
0.0366531
-0.0379728
0.00742539
0.0274112
-0.0178067
-0.00383091
-0.00578079
0.0182668
-0.0560146
-0.00425484
0.0201381
0.0238011
-0.0102947
0.0262055
0.0270566
-0.0429681
0.0101166
-0.00577881
-0.00502418
0.000631853
0.0047787
-0.00772657
-0.00533294
-0.000462883
-0.0266264
0.00513498
-0.00355359
0.00321273
0.0149569
-0.0314301
-0.0141027
0.0441343
-0.0103739
-0.0905811
0.0568288
-0.0170092
0.0020272
-0.0263779
0.0413968
-0.00951653
0.0295905
-0.00604868
0.0142173
0.0338222
-0.0392064
-0.0425571
-0.0417238
-0.0166584
0.019
0.0393684
0.0797831
0.0145936
-0.0398382
-0.0408695
-0.0577644
0.0467965
0.0518643
-0.247285
-0.0428266
-0.00415568
0.000909548
0.0148837
-0.0115844
0.00108228
8.9167e-05
0.00195269
-0.00313323
0.0072599
0.00116594
-0.00384334
-0.00459226
0.00521009
0.00312451
-0.00853146
-0.0111704
0.0253993
-0.00569825
0.00637819
-0.00268627
-0.0167905
0.0130851
0.00063153
-0.00555664
0.0112985
0.00395081
-0.00680922
-0.0225049
-0.00386013
-0.00192852
-0.0292468
0.000142569
-0.000708503
0.00278179
-0.00221588
-0.0001279
-0.000419697
0.000689974
0.00495118
0.0215993
-0.0303314
0.000912177
0.000380823
-0.000300866
-0.000992544
-0.00132715
0.00153009
0.00150394
0.00437011
-0.00419145
-0.00168311
-0.000965076
0.00247132
-1.66236e-06
-0.041305
0.00359532
0.00988622
-0.0199865
-0.00981515
0.00645372
0.0217319
-0.00628865
-0.0134716
-0.00197984
0.00955249
0.00153595
-0.000334576
-0.0107516
0.00953974
-0.00173645
0.00175026
0.0120881
-0.000349132
-0.0102013
0.0179917
-0.0302397
0.021791
0.0155352
-0.0113046
0.00611635
0.012103
0.000730456
-0.0384902
0.0419831
-0.0151818
-0.0347263
0.00791865
-0.00943554
-0.000823978
-0.0314637
0.0362789
-0.00430925
-0.000487598
0.0120455
-0.00785942
-0.0192711
0.0446653
-0.0249514
-0.022533
0.00281743
0.0881595
-0.104504
-0.0169476
-0.00133003
-0.00539338
-0.0162767
-0.0256268
-0.0346717
-0.0212078
0.0136692
0.016085
-0.00855102
0.0139896
-0.00437398
0.00290163
-4.38307e-05
0.0136619
0.0186694
-0.0197812
0.0305886
-0.0294801
-0.00641284
0.0365679
0.00367853
0.00627717
0.0244364
0.0089174
0.00576759
0.00519429
-0.00491633
-0.0752779
0.0274491
-0.00311249
-0.0959199
0.145591
-0.12838
-0.016472
-0.0712419
0.0259335
0.0055546
0.01293
-0.0360067
0.0175189
-0.0467826
0.0298596
0.0285751
-0.0288731
0.0347336
-0.0578761
0.0520399
0.0743495
-0.0174018
-0.00845729
0.0258769
-0.0308015
0.0124916
0.0192871
-0.018038
-0.0313685
0.0302053
0.00289739
0.0923268
-0.0208761
0.0196412
0.016845
-0.0469327
-0.0280388
-0.0216726
0.0477048
-0.00621975
-0.0177747
-0.0128717
0.0301605
-0.000793044
-0.0467682
0.0102548
0.0624417
-0.0425365
0.0344347
-0.0700244
0.0455305
0.0250073
0.00295869
-0.0287339
0.000757915
-0.0134519
0.0520393
0.0166168
0.0194977
-0.0306684
-0.0553786
-0.0317125
0.00118811
-0.0151268
0.00409338
0.00211165
-0.000718249
-0.000786828
0.00622868
0.0231961
-0.00931822
-0.0345866
-0.0184565
0.0213288
0.0317138
0.0716903
0.0291843
0.0255172
-0.028288
-0.00362943
0.0064017
-0.00540652
-0.00203656
-0.00287815
0.0221218
-0.0302433
-0.0157081
-0.00897674
0.0111252
0.00419799
-0.0063534
-0.101435
0.0848476
0.00883746
-0.0422237
0.0294351
0.00394869
-0.0209095
-0.0458564
0.0108509
0.0411844
0.0563301
-0.0966445
-0.000880538
0.0248162
-0.010221
0.000434532
0.00581515
0.00573625
-0.0206989
0.00913712
-0.00926939
0.00706557
-0.0114854
0.0136909
-0.0752065
0.0364684
0.0312724
0.00746317
0.0349918
0.0200302
-0.0298405
-0.0251893
0.0359684
0.075983
0.00626588
-0.00178572
-0.0151224
0.0152756
-0.00206001
0.0229059
0.000634977
-0.000406718
-0.000345996
0.000122652
-0.000938998
0.00122239
0.000614355
-0.000891921
-0.0701747
0.057018
0.00974496
-0.0391928
-0.00586333
0.00155647
-0.0163184
-0.0088451
-0.00437108
0.029521
0.0460653
-0.0437436
-0.0287834
0.00232817
0.0023463
-0.00159502
-0.00307945
0.00353215
0.0125989
-0.0792034
0.0990318
-0.0317054
-0.0117632
0.00785922
0.00592697
0.00778811
0.0344623
-0.00651462
-0.0240763
-0.00682089
0.0438431
-0.0623516
0.0253359
-0.0134479
0.0126814
0.00840923
-0.0076498
-0.0638471
0.0522462
0.00733132
0.00426227
0.0213341
-0.0183907
0.0296071
-0.0325669
0.0229405
-0.0438308
-0.0112841
0.032167
-0.00441691
0.000327226
0.00577791
-0.00168724
0.00206275
-0.00823737
0.00394964
0.00917952
-0.0104381
0.00377418
0.002647
0.00401597
0.00481671
-0.00199315
0.00126348
0.010095
0.00661978
0.0145289
-0.00238188
0.000220782
0.00342343
-0.00088346
0.00512047
0.0167869
0.021791
-0.0359635
0.0181247
-0.0361407
-0.0456294
-0.0136978
0.0342962
-0.00247716
-0.00319891
-0.0127107
0.0151377
0.000758847
0.0215194
-0.0132504
-0.00474854
-0.00352686
0.00163092
9.09667e-05
-0.00445839
0.00273656
0.0659853
-0.0447685
0.025663
-0.0167346
-0.00570265
0.0147595
-0.0852047
-0.0999889
0.111899
0.0152134
0.00866517
0.042789
-0.13611
0.0281559
0.0651534
0.0145499
0.0374473
-0.0377115
0.0293293
-0.0724397
-0.0229363
0.0660439
-0.0112016
-0.00173163
-0.0339617
0.0330067
-0.00809652
0.00904429
-0.00229092
0.0268029
-0.00185818
-0.0226456
0.00070311
0.00943223
-0.0238128
-0.0156977
0.00446114
0.0504942
-0.039275
-0.0133865
0.005958
-0.00439378
0.0118301
0.0302584
-0.0210677
0.00647955
-0.015681
0.0076364
-0.0427373
0.0600098
-0.0350537
0.0534049
-0.00330569
-0.0150862
-0.0166824
-0.0469358
0.0173581
0.0462448
0.00988756
-0.0801603
0.0996006
0.0184448
0.0323342
-0.00450456
-0.0462556
-0.00171055
-0.0235343
-0.00747554
-0.114368
-0.10871
0.00152338
-0.0140654
-0.00813484
-0.0858114
0.0265151
0.0184453
0.00687802
-0.0213548
-0.0122795
0.0267553
-0.0633695
0.0203826
0.0238225
0.0191663
0.00643653
-0.00689186
0.0181135
-0.0176612
0.00618083
0.000135518
-0.0128361
9.01559e-05
-0.00890899
0.0153331
-0.00651005
0.00467009
-0.0075481
0.0029678
-0.0065802
0.00752644
0.00358294
-0.00993758
-0.000226359
-0.00401077
0.0101077
-0.00500955
-0.0053724
0.00851694
0.0139481
-0.00712549
0.0942007
-0.0117294
-0.0144416
-0.00374585
0.0446971
-0.0526556
0.013345
0.0329067
-0.0311197