/*--------------------------------*- C++ -*----------------------------------*\
  =========                 |
  \\      /  F ield         | OpenFOAM: The Open Source CFD Toolbox
   \\    /   O peration     | Website:  https://openfoam.org
    \\  /    A nd           | Version:  11
     \\/     M anipulation  |
\*---------------------------------------------------------------------------*/
FoamFile
{
    format      ascii;
    class       volVectorField;
    location    "20";
    object      U;
}
// * * * * * * * * * * * * * * * * * * * * * * * * * * * * * * * * * * * * * //

dimensions      [0 1 -1 0 0 0 0];

internalField   nonuniform List<vector> 
20983
(
(0.00391798 -0.0255035 -0.00906152)
(-0.0139965 0.0280098 -0.0424269)
(-0.0696777 0.0397583 -0.130233)
(-0.0148797 0.0291206 0.0114067)
(-0.0151901 0.0332353 -0.041106)
(-0.0113891 -0.0160708 0.0219739)
(-0.000942375 0.0121625 0.0113719)
(-0.0310292 -0.025078 -0.0254923)
(0.0111809 -0.00486313 0.000574969)
(-0.0313503 0.0371367 0.0305019)
(-0.0240874 0.0195609 0.0164761)
(0.0130773 -0.0101074 -0.00459035)
(-0.0428066 -0.0188478 -0.0178293)
(0.0257369 -0.0201954 0.0162931)
(-0.0148846 -0.0115773 -0.0547807)
(-0.0357288 0.0237212 0.494171)
(-0.101646 0.171973 -0.110547)
(-0.00687188 0.0527945 0.00241311)
(-0.0301747 0.0326093 -0.0576032)
(-0.014587 0.0225988 0.0150357)
(-0.0379611 -0.00281095 0.0413689)
(-0.0103817 0.00336159 -0.0118983)
(0.0596346 -0.0197321 -0.0603405)
(-0.00680432 0.00949921 0.0540576)
(0.00120704 0.00799995 -0.0132625)
(-0.0129494 0.00444248 0.00134529)
(-0.0161014 0.0407326 -0.0205198)
(-0.0226646 0.0302573 -0.00841283)
(-0.03099 0.0135667 -0.0114341)
(-0.0183185 0.0134117 -0.0136728)
(0.000152122 0.0172948 0.465772)
(-0.0343011 0.00165547 -0.0195577)
(0.100701 -0.00216112 -0.115379)
(-0.02948 -0.0035739 -0.030665)
(-0.0166736 0.0462498 -0.0779639)
(-0.0270825 -0.0200723 0.0462745)
(-0.00996186 -0.00820079 -0.00698844)
(0.0053513 0.0173472 -0.0297074)
(-0.0355571 -0.02468 -0.00292347)
(-0.0355369 -0.00763706 0.0639549)
(-0.018905 0.02797 0.0283742)
(-0.0399891 -0.0178692 0.0270362)
(-0.0306262 -0.00302242 0.01434)
(-0.05271 0.0168021 0.0974851)
(0.0118027 0.0163201 0.0152098)
(-0.0284958 -0.00726326 0.00163472)
(5.92761e-05 0.0250216 -0.00470642)
(-0.00858794 -0.0159336 -0.0191911)
(0.0707537 0.0281907 0.391005)
(-0.220266 0.0162563 -0.0297802)
(-4.42395e-05 -0.03195 0.0445066)
(-0.0209424 0.0266565 0.0542171)
(-0.00510212 0.0159445 -0.0283666)
(-0.0501144 0.0129735 -0.257833)
(0.0519828 -0.0186251 -0.0653872)
(-0.0448179 0.0505073 0.0122162)
(-0.0542222 0.0226685 -0.0399082)
(-0.0422244 0.00106681 0.0733183)
(0.00806635 0.0032607 -0.00904145)
(-0.0054227 0.0264878 0.0410948)
(-0.00519849 -0.0299526 -0.061201)
(-0.0251558 -0.0130781 -0.0196918)
(-0.0145698 0.0239837 0.0118602)
(-0.0214613 0.0480706 -0.0478551)
(-0.0773634 0.039444 -0.10071)
(0.0391511 0.0160976 -0.00525546)
(-0.00122401 -0.0920347 -0.0299658)
(-0.047094 -0.00345185 0.070779)
(-0.0190834 -0.0090479 0.0319941)
(0.00976319 0.0222874 0.0559997)
(-0.00407545 0.012987 -0.0412802)
(0.0123852 0.00568498 0.0300591)
(0.0266412 -0.0433377 -0.0392207)
(-0.0102381 0.0220851 -0.059578)
(-0.0250894 -0.00629767 0.00969077)
(0.120772 -0.0403416 0.246509)
(0.015852 -0.0758743 0.183305)
(-0.0172174 0.0284667 0.0543809)
(0.00281617 0.0317321 0.466108)
(0.0516958 -0.0152197 -0.0283442)
(0.0084044 -0.0247759 -0.00220786)
(-0.0349983 -0.0181286 0.0116762)
(-0.0262144 0.0132682 -0.0407326)
(-0.626434 0.361405 -0.666903)
(0.000587062 -0.0502637 -0.0220464)
(-0.00806014 0.00301797 -0.0119279)
(0.00790233 -0.121733 -0.0212778)
(-0.000508032 -0.0311381 -0.108023)
(0.0195353 -0.0878672 -0.249679)
(-0.0081036 0.0416921 0.0371397)
(0.064204 0.0143441 -0.217045)
(0.468422 -0.111616 0.168501)
(-0.167583 -0.00188808 -0.118799)
(-0.0101167 0.0235367 -0.00383755)
(0.0856958 0.0467987 -0.114226)
(0.0531132 -0.0181103 -0.0451373)
(-0.0528465 -0.0167197 0.287223)
(-0.0483119 0.0137348 -0.0658482)
(0.000453493 0.00577406 -0.0660499)
(0.0217837 0.0168532 0.0225606)
(0.00530133 0.00391461 -0.00850703)
(-0.0358857 -0.0238668 -6.00171e-05)
(-0.0275649 0.00503198 -0.0288543)
(-0.0244857 -0.0124562 0.34029)
(-0.0265386 -0.0235819 -0.00650328)
(-0.0381738 0.0149914 -0.0251523)
(-0.0117556 -0.000751264 0.250986)
(0.0201864 -0.0210955 0.00925697)
(0.0900553 0.137235 -0.365653)
(-0.00537705 0.00320041 -0.0332259)
(-0.0104183 0.0128386 0.00752369)
(-0.0172029 0.0431503 0.0287622)
(0.014487 0.00335373 0.0235303)
(0.0624971 -0.267352 -0.0787393)
(-0.116956 -0.141858 -0.0600381)
(0.0546585 -0.00914686 -0.0168974)
(-0.149443 -0.285242 -0.155805)
(-0.248779 -0.104368 0.186045)
(0.0226309 -0.7523 -0.943862)
(-0.393473 -0.54163 0.0481611)
(0.0233229 -0.0127095 -0.00334942)
(0.0496078 0.00685285 0.0519319)
(0.0476929 0.0167289 0.239228)
(-0.0185891 0.0118239 0.0383017)
(-0.021865 0.0187112 0.0418758)
(-0.0111426 0.0089946 0.0551966)
(-0.0180279 0.0248097 0.029817)
(-0.0290466 0.0276052 0.0807288)
(0.00101142 0.00489049 -0.0298089)
(-0.00734481 0.0301042 0.261094)
(-0.023151 0.0280615 0.105778)
(0.0158192 0.0125741 0.0224204)
(-0.00904794 0.035137 0.12095)
(0.00601633 0.0276649 0.0272478)
(-0.000582888 0.00135621 -0.0452972)
(-0.00447769 0.00332316 0.0234964)
(-0.00373129 0.0269326 -0.0170396)
(0.0363995 -0.0206997 -0.16549)
(-0.0561733 0.00524229 0.114186)
(0.0230411 0.0573988 0.195037)
(0.0107192 0.00679864 0.446619)
(-0.02491 -0.0452655 0.0193322)
(-0.0250682 0.00968281 0.0144664)
(-0.0165453 -0.017927 0.0205675)
(-0.0155284 0.0242345 0.0494569)
(0.00335053 0.0241195 0.0456534)
(-0.0219898 -0.0489019 -0.0618811)
(0.0502361 -0.0929515 0.351055)
(0.0582586 -0.152766 0.243797)
(-0.00465575 -0.0504434 0.430335)
(-0.0588994 0.0433511 -0.179073)
(0.0119387 -0.103518 -0.0334707)
(0.0331863 0.0234198 0.00854113)
(-0.032023 -0.000790963 0.0222938)
(-0.0663451 -0.0158639 0.063581)
(-0.0728496 0.0268861 0.0810855)
(-0.039372 -0.0148095 0.0176225)
(0.000987169 -0.0229104 -0.00501909)
(-0.000182168 0.00878326 -0.0243433)
(-0.0101589 0.0146633 -0.00583644)
(-0.0447954 0.0137276 0.0335097)
(-0.0314979 -0.00798617 0.00520277)
(0.00072244 0.00818691 0.016935)
(-0.0125255 0.00282657 0.0290227)
(0.0997169 0.0248108 -0.28605)
(-0.0013971 0.0056436 0.0199175)
(-0.0333605 -0.01169 0.0454923)
(-0.00541325 -0.0279533 0.0316465)
(-0.0341495 -0.0139127 0.0433752)
(-0.0335356 0.000325418 0.0369732)
(0.0169314 -0.00890379 -0.0333817)
(-1.19331 -0.993628 -0.92602)
(-0.209582 -0.534995 -0.0015673)
(0.213879 -0.161332 0.135597)
(-0.0353358 -0.00386139 -0.0183609)
(-0.00447506 0.00989589 0.0517258)
(-0.284682 -0.139261 -0.281144)
(-0.052318 -0.0233037 0.0647385)
(-0.726883 -1.30832 -0.75508)
(-0.0454037 0.00600687 0.0900751)
(-0.0128995 -0.00501501 0.063757)
(0.121178 -0.00174218 -0.140241)
(-0.0138387 0.0148847 0.00559716)
(0.00305065 0.00644907 -0.0299194)
(0.0050958 0.0202631 0.0615487)
(-0.149086 -0.0468514 -0.0559836)
(-0.0228995 0.0408847 -0.0668854)
(-0.0173598 0.019039 0.0179555)
(-0.000824768 -0.019158 -0.143008)
(-0.02078 0.0167573 -0.0429548)
(-0.0388086 0.00523063 0.0544628)
(0.0301766 -0.0255753 0.0226052)
(0.0182505 -0.00671074 -0.0270162)
(-0.0164066 0.0454601 -0.126539)
(0.0765203 0.051171 -0.0191828)
(-0.0140965 0.00116785 -0.0320303)
(0.0230156 0.0242846 0.35393)
(0.00675847 -0.0103216 -0.0597083)
(0.0186362 0.0299467 0.339481)
(0.0433001 0.032239 0.0798291)
(0.0304811 -0.00970636 -0.00372229)
(0.0245439 -0.000612774 0.36554)
(-0.0446316 0.0128972 0.0991282)
(0.0151358 0.0565765 0.0541697)
(0.0174793 0.0244892 0.159722)
(0.00644733 0.0808584 -0.0394548)
(-0.0253648 -0.00804166 0.0550464)
(-0.0147242 0.00929763 -0.0143859)
(0.458669 0.0747825 -0.458001)
(-0.0287155 0.0163375 0.0774995)
(0.00542906 0.0086874 0.0225708)
(0.026126 0.0128211 0.231179)
(0.0252136 0.0155359 0.309295)
(0.0107544 0.0027647 -0.029044)
(0.00908135 0.00817647 0.0338546)
(-0.0245181 -0.0114407 0.0677446)
(0.0401435 0.0465977 -0.0214352)
(0.0140961 -0.00765821 0.0288708)
(-0.0118668 0.00473369 0.0221185)
(-0.0350758 0.0311522 0.0314791)
(-0.020563 0.033628 0.0841667)
(-0.0178865 0.0195242 0.0202667)
(-0.00634629 0.0107055 -0.03872)
(-0.0129688 0.0110552 0.270707)
(-0.0349273 0.00753765 0.189276)
(-0.00865148 -0.00503449 0.270498)
(-0.0294791 -0.00689459 0.0461414)
(-0.0589357 0.0152317 0.155294)
(0.0251852 0.0702618 -0.0530161)
(0.023431 0.0289697 0.0131456)
(0.00585419 0.0201797 0.0650452)
(-0.0184668 -0.00135669 0.00684827)
(-0.04066 0.0343122 -0.0431652)
(-0.0518493 0.0261737 0.145177)
(0.520299 0.640881 -0.501436)
(0.00188462 0.0421725 0.00536469)
(0.406821 0.19635 -0.000774784)
(0.0206733 0.0275847 0.152602)
(-0.0389581 0.0546829 0.0635364)
(-0.0237804 -0.0022951 0.0571739)
(-0.0243109 0.0857042 0.00777212)
(-0.0446032 0.0396565 -0.0930968)
(-0.0199234 0.00195631 0.000679874)
(0.028848 -0.000966526 -0.0103334)
(-0.0143066 0.0132901 0.0418076)
(-0.0330667 -0.00604597 0.0298823)
(0.00766073 0.00903915 -0.016117)
(0.0178964 -0.0131177 0.0030114)
(-0.0999295 -0.0345718 0.367151)
(-0.0957386 -0.0593697 0.128004)
(-0.0454456 -0.0327845 0.470431)
(-0.123326 -0.0615304 -0.119306)
(-0.166958 -0.066396 -0.2079)
(-0.00647685 0.0357145 0.0359172)
(0.00391742 0.0519832 -0.000836835)
(-0.0175561 0.0393394 0.248092)
(0.033889 -0.0536815 -0.0485481)
(-0.0256594 0.00730833 0.0204034)
(0.0232284 0.0238247 -0.0378073)
(0.0394358 0.0128339 -0.00112712)
(-0.0140504 0.0121436 -0.102608)
(-0.0620393 0.0135435 -0.000671736)
(-0.0114569 -0.0549291 -0.0437089)
(0.0165212 0.00401343 0.0161386)
(-0.0133101 0.0171629 0.0192625)
(-0.0175018 0.0263264 -0.0136406)
(-0.0353155 0.00489683 -0.00295766)
(-0.0195272 -0.0129578 -0.000196149)
(-0.00562942 0.015782 -0.00873982)
(-0.0290015 0.0153765 0.0683768)
(-0.00865691 -0.0240936 -0.0287517)
(0.0666646 0.0994912 -0.0957536)
(0.0183839 -0.00784893 0.0173481)
(-0.0088451 0.0308983 0.0674932)
(-0.00870984 0.0104364 0.0277845)
(-0.00516663 0.000233495 -0.023218)
(-0.0147381 0.00268974 0.0115184)
(0.0148057 -0.0722525 -0.0275234)
(-0.0130755 0.0393241 0.0748766)
(-0.038178 0.0121884 -0.0575096)
(0.0244516 0.0698852 -0.0312705)
(-0.0324116 -0.0498596 0.0696225)
(0.00290223 -0.00636103 0.0299662)
(-1.00985 -0.0144105 -0.740032)
(-0.0352271 0.0239893 -0.0409039)
(0.000486414 -0.0421668 -0.0232171)
(-0.0171151 -0.0249856 -0.0234252)
(-0.0131008 -0.0164768 -0.024832)
(-0.0236717 -0.0291252 -0.0172)
(-0.0318506 -0.028489 0.0503847)
(0.00872656 0.0492468 -0.106247)
(-0.062143 -0.00270008 -0.0676053)
(0.00239419 0.03137 -0.0342949)
(-0.041841 0.0397371 -0.0871749)
(-0.0038659 -0.0259904 0.0285105)
(-0.0289924 0.0322953 -0.0535267)
(-0.0244632 -0.0179676 0.0366128)
(-0.0137645 -0.0239762 0.0696453)
(0.023132 0.0123009 0.0397463)
(0.00398198 -0.00705619 0.152697)
(0.0587674 0.0319413 -0.0629988)
(0.0171669 0.0111076 0.0426963)
(-0.0263383 -0.0053975 0.0597898)
(0.0565071 0.0104441 -0.00495051)
(0.0662664 0.0267946 -0.0950886)
(0.00832048 -0.0358082 0.033067)
(0.0166257 0.00969451 0.0328469)
(0.0159143 0.010976 0.0395946)
(-0.0141981 0.0253606 0.127916)
(-0.0229675 0.0137105 0.163811)
(0.0615077 0.0400239 -0.0649494)
(-0.0183033 0.0026584 0.1171)
(-0.0265309 0.0695454 0.184418)
(-0.00992588 -0.0278028 0.289648)
(0.0206084 -0.0145035 -0.0295276)
(-0.00801149 0.0256362 -0.00551418)
(0.0109523 0.0038118 0.475136)
(-0.00706134 -0.00816313 -0.030067)
(-0.00947105 0.0521033 -0.0101354)
(-0.00146795 -0.0293972 -0.00292604)
(-0.0335378 -0.0107678 0.0081245)
(-0.0503043 -0.150169 -0.301478)
(0.043331 0.0234008 -0.242082)
(0.0233137 -0.0322415 -0.0507518)
(-0.010453 -0.0172733 -0.0193825)
(0.00207134 0.0256599 0.0580898)
(0.0205758 0.068139 -0.0696367)
(7.96917e-05 0.0100179 -0.0144072)
(0.0144222 -0.0188821 -0.0195898)
(-0.00138177 -0.00953538 0.447664)
(-0.0170323 -0.0104198 0.393414)
(-0.00938659 0.0261536 -0.0397726)
(-0.0234686 -0.0166708 -0.00105275)
(-0.00556291 0.0309106 0.06093)
(-0.0260605 0.0572952 -0.102795)
(-0.00709862 0.0282486 -0.0152388)
(0.570512 0.241879 -0.609594)
(-0.0523031 -0.0260354 0.0615889)
(-0.0181083 -0.0299223 0.0492556)
(-0.179841 -0.241854 -0.0949349)
(-0.018331 0.00546829 0.0465876)
(-0.00362451 0.0306271 0.0732184)
(0.0832114 -0.152756 0.46727)
(0.00648196 -0.0873291 0.134582)
(0.0182461 -0.0256117 0.430714)
(-0.0358071 -0.0122423 0.465894)
(0.000518818 -0.0845815 0.0348334)
(-0.030879 0.00848574 0.0152466)
(-0.0250057 -0.000406484 0.0829434)
(0.0199588 -0.0241082 0.0367256)
(0.0233755 0.0118462 0.0335704)
(0.012433 0.00295537 0.0136053)
(-0.0174816 0.0153319 0.135052)
(-0.0149416 -0.031093 -0.0104411)
(0.0550608 0.0266496 0.0051487)
(0.0299033 -0.0293078 -0.0490934)
(-0.0413273 0.00768454 0.0342818)
(-0.00376851 -0.00726165 0.027673)
(-0.0384209 -0.0175458 0.0149496)
(-0.0467155 0.0181316 0.0758177)
(-0.0271209 0.0464144 -0.0738075)
(-0.199842 0.0141319 -0.442949)
(-0.0297286 -0.000501291 0.00320651)
(-0.00519614 0.0219439 -0.00492611)
(-0.0488618 -0.00289163 0.105285)
(-0.00576026 0.033346 -0.0307816)
(0.0140717 -0.00941233 0.0462997)
(0.0200843 0.00572709 0.0333742)
(-0.0202169 -0.0173606 -0.0211647)
(-0.00480903 -0.0191665 -0.0101535)
(-0.0325952 0.00536343 0.0805986)
(-0.00556359 0.00996207 0.234233)
(-0.0250515 0.0453 0.0980363)
(-0.0179245 0.0155555 0.0449742)
(-0.0235945 0.019686 0.00874944)
(-0.008139 0.043229 0.145134)
(-0.0019764 -0.0387225 -0.00479824)
(0.228454 0.0810813 0.0612383)
(0.216112 -0.215137 0.158021)
(1.3984 -0.60669 -0.30153)
(1.25478 -0.100367 -0.152012)
(-0.00190177 -0.0149277 -0.0744879)
(0.170573 0.0763053 0.091738)
(0.123604 -0.0946315 0.047144)
(0.0803414 -0.146444 0.174337)
(0.0200187 -0.0122304 0.0333967)
(-0.0405259 -0.0163396 -0.0380102)
(0.0824822 0.114809 0.296817)
(0.184428 -0.242443 -0.244173)
(0.102763 -0.149899 -0.11038)
(0.0868089 -0.191595 0.033045)
(0.0522511 -0.197169 0.148523)
(-0.0217554 0.0344867 -0.0631786)
(-0.0111551 0.0145301 0.0274512)
(-0.0196022 0.0122894 0.178249)
(-0.0121877 0.0326659 0.0416851)
(-0.0127966 0.0185693 0.0596326)
(-0.000374612 0.00199885 -0.027812)
(-0.035446 0.00403525 -0.0061672)
(0.0329683 0.00901161 0.00451658)
(-0.0344354 0.0032228 0.0381492)
(0.000421201 0.0291506 0.0717479)
(-0.0835721 -0.0949617 -0.163904)
(-0.00408562 0.00186492 -0.0231279)
(0.164546 0.0432142 -0.0858641)
(-0.105694 -0.010506 0.0960238)
(0.0261664 -0.0270625 -0.0747969)
(0.0623425 0.22159 -0.341298)
(-0.009413 0.0360116 0.0511763)
(-0.0338916 -0.00937078 0.0340879)
(-0.0114693 0.0201962 0.034617)
(-0.0250043 0.0483919 0.00382744)
(-0.052062 0.050007 -0.0122931)
(-0.0933958 0.0939598 -0.0239266)
(-0.101411 0.0231274 -0.182101)
(-0.00151147 0.0256608 -0.0134977)
(0.165889 0.0201391 -0.0560948)
(-0.0354664 0.13778 0.108671)
(-0.00761014 -0.0277446 -0.00947355)
(-0.0606068 -0.00545339 -0.0574863)
(-0.0837797 0.0615478 -0.0350962)
(0.0562049 0.0254693 0.0408432)
(0.012724 0.0137831 0.00564228)
(-0.036285 0.0138413 0.0118881)
(-0.014163 0.0258182 0.234029)
(0.0361378 -0.00868974 0.0222464)
(0.0227561 -0.0537663 0.0228989)
(0.0100345 -0.0551027 0.0129442)
(0.0976889 0.0429491 0.109022)
(-0.0220502 0.00220771 0.0140883)
(-0.00306504 0.0210689 0.0269169)
(-0.0152573 0.0280204 0.0751896)
(-0.033756 0.0478947 -0.0853911)
(0.00329047 0.00822636 0.402863)
(-0.00994322 0.0422584 0.369988)
(-0.0274605 0.0330221 0.359156)
(-0.0502586 0.060846 0.299907)
(-0.111699 0.00850212 0.233473)
(-0.0187902 -0.0429528 0.0629822)
(-0.243515 0.0308166 -0.160302)
(0.0048377 -0.00156994 0.0322759)
(0.00794232 0.00264731 0.0337451)
(-0.062775 -0.0185024 0.0610967)
(-0.0143303 -0.00103351 0.0675924)
(-0.0237243 -0.0352185 -0.0429839)
(-0.00635287 0.0197155 0.037278)
(-0.0178986 0.0127976 0.0473117)
(-0.0199568 0.0132703 0.0182299)
(-0.198492 -0.022043 -0.361682)
(0.00814897 0.0192341 0.0342181)
(0.0460762 -0.00395403 -0.15522)
(0.109444 0.0370542 -0.194891)
(-0.00334251 0.0226058 -0.0162073)
(-0.0218752 -0.0304489 -0.0185894)
(-0.00967541 0.0148274 0.0542259)
(0.0292595 0.000375581 -0.0238884)
(-0.0283206 0.0114754 0.25623)
(0.0155573 0.026846 0.0115607)
(-0.0173644 0.0252821 0.0260455)
(0.000911918 0.0597401 0.00975727)
(0.193177 -0.140054 -0.30896)
(0.234448 -0.100059 -0.450343)
(0.105189 -0.0409254 -0.142481)
(-0.0380965 0.000497247 -0.0148886)
(0.130867 -0.032144 -0.106858)
(0.177208 -0.187555 -0.550891)
(0.139426 -0.0239299 -0.121936)
(-0.190411 0.115553 0.0391204)
(-0.0263174 0.0105651 0.0619534)
(-0.0715658 0.0059961 0.0635769)
(-0.381295 -0.11789 -0.451223)
(-0.0152367 0.110436 -0.021694)
(-0.0127897 0.01101 -0.00268083)
(0.00344351 0.0125833 -0.000267755)
(-0.0358253 0.0213857 0.036646)
(-0.00672469 -0.0362932 -0.0300312)
(0.069121 -0.0320162 -0.034876)
(0.0154502 0.0113928 -0.0169009)
(0.0306633 -0.0574441 0.022324)
(-0.0175835 0.00376832 -0.0283473)
(-0.0262852 0.0227929 -0.0528838)
(-0.0218543 -0.0189308 -0.0127449)
(1.4575 1.12862 0.0204438)
(0.0541139 0.172344 0.136549)
(0.698639 0.692268 0.0912302)
(-0.129397 0.00694959 0.126685)
(-0.0438314 0.0255099 0.0206012)
(-0.00744364 0.129556 0.188244)
(0.00336519 0.0015258 -0.00605241)
(0.0129619 0.00594404 0.0847136)
(0.0231198 0.000813909 0.130976)
(-0.0255346 -0.00652572 0.0580756)
(0.0287649 -0.00052694 0.222829)
(-0.0171128 -0.020056 0.0147841)
(-0.0224733 -0.0114513 0.0504814)
(-0.0185197 0.0062825 0.0239157)
(0.0109047 0.00647505 0.0138491)
(0.000954953 0.00903423 0.504342)
(0.0275385 0.00268952 0.32848)
(0.00754866 0.0167441 -0.0964938)
(-0.016844 0.00198329 0.212976)
(-0.0161564 0.00786848 0.260842)
(-0.0150551 0.000659531 0.252614)
(-0.0228074 -0.0306908 -0.0441561)
(-0.00549592 0.0385201 0.00293127)
(-0.0222914 -0.00859746 0.420815)
(1.76314 -0.386118 0.247996)
(-0.000503946 0.0140975 -0.0351635)
(-0.0729726 -0.0286209 0.0813832)
(0.00545853 0.0112525 0.505987)
(0.018321 -0.0288996 -0.0264433)
(0.0206557 -0.0337804 -0.0310287)
(0.00757089 0.0256888 0.513027)
(0.0222958 -0.0371618 -0.0284273)
(-0.0197121 -0.00603225 -0.0575615)
(-0.0196987 0.0133227 0.29666)
(-0.00272326 -0.014148 -0.0205821)
(-0.0096759 -0.0316356 -0.0404588)
(-0.0297994 -0.00265175 0.249587)
(0.00864629 0.0284939 -0.0141853)
(0.00200109 -0.000570767 0.0353016)
(-0.0184591 0.0112885 0.0116992)
(0.00162477 0.0120156 0.0860689)
(-0.0381044 0.0112767 0.204204)
(-0.0327123 0.00569132 0.272796)
(-0.0352295 -0.0131663 0.0205237)
(-0.0571145 0.0194754 0.15443)
(0.0312661 -0.0266507 0.141388)
(0.027886 -0.00453929 0.307522)
(0.0264255 0.000463969 0.338088)
(-0.0129721 0.0137447 0.150833)
(0.30315 -0.410135 -0.542149)
(-0.00667285 -0.0121635 0.482375)
(0.0164455 -0.00245967 0.0199821)
(0.00217654 -0.0112754 0.441236)
(-0.0160069 0.0219171 -0.0376016)
(-0.272904 0.0693303 -0.260111)
(-0.0923277 0.0269487 -0.0842899)
(-0.0314303 -0.0448855 -0.0351275)
(-0.00837642 -0.0134232 -0.000693945)
(-0.00827337 0.00962422 -0.0330589)
(-0.160538 0.247445 -0.0711649)
(-0.0923424 -0.0134051 -0.0155883)
(-0.0335395 0.0161266 -0.00472988)
(-0.0197676 -0.0115656 -0.00318343)
(-0.00479667 -0.0336153 -0.0155808)
(-0.00835172 -0.0164969 -0.0321105)
(-0.0330309 -0.00136205 0.07299)
(0.0124326 -0.0106884 -0.0239818)
(-0.0203372 0.0206759 0.0494451)
(-0.00607495 0.00958644 0.0222751)
(-0.000348736 0.0478257 0.0131985)
(-0.0319151 0.000745999 -0.0101352)
(-0.0282792 -0.0698362 0.0129694)
(0.017672 -0.0814142 -0.21796)
(-0.035805 0.00586544 0.260552)
(-0.0156162 -0.0223772 -0.0198522)
(-0.014591 0.0175482 0.267949)
(0.0394395 0.0341219 0.151078)
(-0.0115427 -0.0558927 -0.0536518)
(-0.0281621 -0.015887 0.0472653)
(-0.00324778 0.00149006 0.0261027)
(-0.02715 0.0141264 0.0351552)
(0.0172909 -0.0220649 -0.0268411)
(-0.00528452 0.0427646 0.0764407)
(-0.0270378 0.060879 0.034312)
(0.00642824 -0.000456383 -0.00679733)
(0.0253575 -0.0185668 -0.0342827)
(0.575883 -0.400772 -0.27491)
(0.118899 -0.172682 -0.0320956)
(0.0986848 -0.284484 0.0782608)
(0.149286 -0.216415 -0.0283431)
(-0.0569844 0.149247 -0.0201991)
(0.052823 -0.0882132 0.219957)
(-0.0396913 0.0196883 0.00308472)
(0.0606897 0.0331307 -0.023581)
(0.0757298 0.000195913 0.00763865)
(0.0432339 0.0138385 0.202542)
(-0.0154453 -0.000199931 0.054386)
(-0.0194666 0.0378952 -0.0678682)
(0.028372 -0.00931682 -0.0723717)
(0.0182306 0.000936361 -0.0210112)
(-0.00224017 0.0090347 0.0613102)
(-0.836225 -0.0937417 -0.674078)
(-0.0103592 0.0123882 -0.0109344)
(-0.379811 -0.218324 0.33762)
(-0.177328 -0.0784198 0.404237)
(-0.0253419 -0.0194735 -0.0134276)
(0.00526613 0.0208906 0.0722699)
(-0.0149319 -0.0135978 0.0526387)
(-0.0146296 -0.00348504 0.0639889)
(-0.00848952 0.0308794 0.0586656)
(0.0148871 -0.0790763 0.00330701)
(0.0192971 -0.0684996 0.0236688)
(-0.0156483 0.00944204 -0.00876272)
(0.00182725 -0.00280513 0.0447232)
(0.0218232 -0.0699623 0.015476)
(0.0232416 -0.0669985 0.0248263)
(-0.0301775 0.0142558 0.063422)
(-0.0180269 0.0365721 0.0699605)
(-0.0277436 0.029191 0.0657599)
(-0.0117004 -0.0389 0.0439006)
(0.0168358 -0.00966202 0.00969855)
(-0.0235552 0.0151453 0.0361633)
(-0.0185711 0.0604258 -0.0482867)
(-0.00937541 -0.00779854 0.0609193)
(-0.0310289 0.01804 0.0927417)
(-0.0123141 0.00683987 -0.0216889)
(-0.00573522 0.0280361 -0.00940675)
(-0.0854993 0.0076703 -0.0231384)
(-0.0505691 0.0344294 0.165507)
(-0.00822706 -0.00993673 0.322009)
(-0.0343447 0.0275874 0.321098)
(-0.0159877 -0.00363783 0.0486351)
(-0.00103719 0.00585457 0.411309)
(-0.015282 0.0818849 0.429331)
(-0.0217307 -0.00172762 -0.0241077)
(0.00999107 -0.0079136 -0.0170992)
(0.0135903 -0.0225005 -0.0182874)
(-0.0574023 0.000859943 -0.0324487)
(-0.0254504 0.0244315 0.0609439)
(-0.0249757 0.0151145 0.0083845)
(-0.110249 0.129477 0.0708064)
(-0.0640042 0.0661123 -0.263279)
(0.0223902 0.0133783 0.384052)
(0.066194 -0.098281 0.317591)
(-0.0231752 0.00992964 0.0214845)
(0.0496879 -0.0559125 0.398245)
(0.102404 -0.0945618 0.165376)
(-0.0123283 -0.0198143 0.0211797)
(0.0399522 0.0166138 -0.00941931)
(0.00984122 -0.0129566 -0.0623388)
(-0.030504 0.0155995 0.059756)
(-0.134348 0.104703 -0.37998)
(0.0145721 0.0116663 0.0276513)
(0.0371932 -0.0209173 0.0510344)
(0.00305744 -0.00667502 0.0119361)
(0.0204945 0.0791988 -0.0453874)
(-0.0146491 -0.00408648 -0.0344534)
(0.0145988 -0.0469404 -0.0593833)
(0.00446301 0.048944 -0.00395505)
(-0.0491312 -9.51364e-05 0.0278768)
(-0.0980261 0.0779388 -0.276363)
(-0.168301 -0.0939907 0.0666964)
(-0.0336418 -0.0243218 0.0287864)
(-0.0275368 0.0154931 0.0224901)
(-0.0153231 0.00267877 0.0551821)
(-0.00402584 0.0259456 -0.00139672)
(-0.00650132 -0.0391227 -0.0220575)
(-0.0135566 -0.00563873 -0.0178292)
(-0.0309471 0.0136079 0.0736884)
(0.00242344 0.0143198 -0.0302476)
(-0.00949474 -0.0710998 -0.0196323)
(-0.169088 -0.211972 -0.0405938)
(-0.318935 -0.357583 -0.103742)
(0.0282823 0.159002 0.218931)
(-0.00286948 0.015988 -0.0121555)
(-0.0238671 -0.01288 -0.0181742)
(-0.00420079 -0.0758699 -0.0728373)
(-0.0253984 0.00180553 0.0269612)
(0.00092784 0.0412189 -0.0173859)
(-0.000875366 0.00381452 0.0227536)
(-0.0160801 -0.0100394 0.0484979)
(-0.0233821 -0.0612936 -0.062679)
(0.00284518 -0.106467 -0.0160602)
(-0.0443825 0.0157216 0.0781582)
(-0.207453 0.0242036 -0.577852)
(-0.0125208 -0.0233405 -0.00741416)
(-0.00877517 -0.0143018 0.0247444)
(-0.0123833 -0.00516395 0.0159733)
(-0.0142523 -0.0126577 0.0260168)
(0.00188989 0.00878196 -0.0242645)
(-0.0132346 -0.0335459 -0.0355082)
(-0.0144979 -0.0309109 -0.0294481)
(-0.014104 0.0245867 0.0169532)
(0.0555854 0.0376331 -0.0202935)
(0.0295881 0.0407642 -0.00576959)
(-0.00184603 0.00886383 0.0049195)
(-0.0167562 -0.0551743 -0.0662656)
(-0.00499071 0.00917284 0.00190017)
(-0.0114102 0.0173196 -0.00942246)
(0.0419637 0.0204354 -0.00629534)
(0.0193005 0.0096549 -0.00571577)
(-0.020502 -0.0152118 -0.0567449)
(-0.0232044 0.00727676 -0.00703368)
(0.0128926 -0.00258694 0.0322216)
(-0.0366831 0.00570681 0.129492)
(-0.0412503 0.00419871 0.134422)
(-0.0546252 0.0165166 0.168207)
(-0.0255486 -0.00168813 0.0806372)
(-0.00098637 -0.0140649 -0.0253279)
(0.0318768 -0.0218268 0.0193737)
(-0.0180211 0.00356838 0.0559129)
(0.000475745 0.00304582 -0.0222992)
(0.0204009 -0.0339241 -0.0325425)
(0.00783697 -0.00629718 -0.012415)
(0.00318901 0.00963442 -0.031498)
(-0.1093 0.0472444 -0.396)
(0.0269947 0.0112366 0.0113243)
(0.0103256 0.0219013 0.0590846)
(0.0181209 0.00897648 0.00369491)
(-0.000866175 0.00841176 -0.0113032)
(-0.00438836 0.0198796 -0.013144)
(0.0460681 -0.0193439 0.0261836)
(-0.0145395 -0.00525219 0.0478222)
(-0.00891926 0.0194237 0.0366507)
(-0.238522 -0.368362 -0.00547769)
(-0.00651474 0.0311916 0.0731581)
(0.2327 0.267109 -0.348001)
(-0.0641716 -0.0248904 0.0538217)
(-0.025467 0.0164723 0.0376961)
(-0.0381541 0.0126202 0.0424055)
(-0.00829024 0.018753 0.0755598)
(0.0338317 -0.0172336 0.32785)
(-0.0324643 -0.0128646 -0.00558541)
(-0.0352972 0.0109236 0.0364922)
(0.0271987 -0.0191992 0.264445)
(-0.0334002 -0.00396347 0.0366408)
(-0.0236469 0.0209253 -0.07213)
(-0.0163471 0.00582424 -0.02322)
(0.0921654 -0.0159302 0.0633109)
(0.078594 -0.0147533 0.0611052)
(-0.03282 0.0141428 0.0938298)
(-0.0316248 -0.0190377 0.00844851)
(-0.0353223 0.0382083 -0.0564647)
(-0.0459491 -0.00384435 0.066249)
(-0.0293827 0.0115983 0.0586332)
(-0.0016492 0.0157979 0.00455608)
(-0.0322919 0.00139351 0.0295648)
(-0.0201821 0.0441926 -0.0247239)
(-0.0540046 0.00962879 0.0855762)
(-0.00174385 0.0353453 -0.0902608)
(-0.0156894 0.0200532 0.0341798)
(0.0444077 0.00659043 0.0170976)
(0.0304352 0.0327608 -0.0364839)
(-0.0203541 0.016214 0.0399)
(0.0667636 0.19834 -0.292958)
(-0.0252758 -0.024534 -0.0183032)
(-0.0512535 -0.0556868 0.0651779)
(0.030312 0.0954492 -0.11793)
(-0.0157851 -0.012422 -0.0175784)
(-0.0125555 -0.0302469 0.00728017)
(-0.0368327 -0.0145782 0.192417)
(0.0458121 0.0288833 -0.031173)
(-0.00510993 -0.0135469 0.0437093)
(-0.0218934 -0.00669043 0.501137)
(-0.0424486 -0.016521 0.0600171)
(-0.111267 0.0577875 0.239889)
(-0.0665059 0.0395281 0.383589)
(0.0272422 -0.0263903 -0.0125305)
(0.0112204 0.000120434 0.00544897)
(-0.0341281 0.0124668 0.0450647)
(-0.0233759 0.0452297 0.0202601)
(0.00234247 0.0167324 0.0381241)
(-0.0175451 -0.0413225 -0.0292807)
(-0.0696942 -0.0517886 0.00893357)
(-0.0668522 0.021823 0.384559)
(-0.0109319 0.0325681 0.072147)
(-0.0252901 0.022951 0.0272881)
(-0.00846173 0.031039 -0.0221625)
(0.0301696 0.0844185 -0.0723465)
(0.00354117 0.0343511 0.0980108)
(0.0060878 0.000563272 0.0250737)
(-0.0548667 -0.0163659 0.0617819)
(0.00831198 -0.00785179 -0.0461694)
(-0.0193521 0.0293533 0.0335576)
(-0.0341698 0.103696 0.176269)
(-0.036736 0.0141811 0.436857)
(-0.0337412 -0.0854455 -0.094948)
(0.0276334 0.0534703 0.452891)
(-0.00403365 -0.0242617 0.492855)
(0.0173358 -0.0441123 0.478772)
(-0.010354 -0.0279572 0.489012)
(0.0596587 -0.0626226 0.337309)
(-0.039278 -0.0222758 0.359836)
(0.0125594 0.0119211 0.0208563)
(1.74602 -0.416275 -0.8408)
(1.01231 -0.141829 -0.246077)
(-0.00970724 -0.0378537 -0.0101001)
(0.0198483 0.031012 -0.0069201)
(0.0980041 0.124634 0.346038)
(0.0307771 -0.0428681 -0.0471666)
(0.000368975 0.0179226 0.0244045)
(-0.166427 -0.0446666 -0.317043)
(-0.0199378 0.00206659 0.0138921)
(0.0244761 0.000936482 0.0908124)
(-0.0252012 0.0138413 0.0387565)
(-0.0726942 0.0341837 0.142238)
(-0.00686938 0.0149965 -0.00887344)
(-0.0113515 0.011342 0.0373142)
(0.00529159 -0.0179664 -0.0502289)
(-0.0344872 -0.0227651 -0.00274894)
(-0.039862 -0.00536222 -0.0110962)
(-0.0267725 -0.0112653 -0.00255964)
(-0.0284119 0.00154882 0.0424882)
(-0.0456717 0.0162759 0.0605544)
(-0.0120734 0.00765634 0.050466)
(-0.00188744 -0.0315982 -0.028095)
(-0.0694503 0.0350531 0.150027)
(-0.0163971 -0.0329676 -0.0243036)
(-0.00306587 -0.0265174 0.0276181)
(0.170106 0.142353 -0.307062)
(-0.00448684 -0.00511676 0.0157012)
(-0.0407338 0.0181875 0.0766199)
(-0.0154332 0.00623062 -0.0166505)
(-0.00179707 0.0278937 0.048001)
(-0.0255625 0.0198248 0.0460554)
(-0.0108114 0.0149178 0.00527802)
(-0.0904023 -0.151308 -0.211776)
(-0.0042069 0.0716156 -0.208177)
(-0.0592811 0.0484252 -0.195117)
(-0.152527 0.0692733 -0.229726)
(-0.0931542 -0.118611 -0.21359)
(-0.130732 -0.209236 -0.219726)
(-0.107521 -0.153616 -0.212353)
(0.00343207 0.0140549 0.274611)
(-0.0224239 0.0278015 0.054495)
(-0.0135514 -0.00842137 0.0482194)
(0.0213782 0.0855054 -0.102259)
(0.0149319 -0.00227033 0.00409132)
(-0.128716 0.106108 -0.418789)
(0.0607457 0.0241283 -0.162167)
(0.00732095 0.0713201 -0.309422)
(-0.0340987 0.00607076 0.0947469)
(-0.0221593 -0.00234923 0.00329004)
(-0.0948417 0.132751 -0.471479)
(0.0424804 0.0347149 0.297587)
(0.00250086 0.0336714 0.205503)
(-0.140888 -0.0356649 -0.324119)
(0.0159168 0.0329852 0.3292)
(0.0628625 0.0139546 0.297134)
(0.0215475 0.0114205 0.0303551)
(-0.0582249 -0.0203159 0.0639952)
(0.0015893 0.00906187 -0.031372)
(-0.00196487 -0.0020655 -0.0469436)
(-0.0110826 0.0162645 0.0196423)
(-0.0344914 -0.0217303 -0.055819)
(-0.0100469 0.0386855 -0.0343733)
(-0.00172864 0.00403393 0.0584014)
(-0.0177258 0.028484 0.0750661)
(-0.0201749 0.0169071 0.0565132)
(-0.00720393 0.0229982 0.0433287)
(-0.00489405 0.0129256 0.00564497)
(-0.0114717 -0.0246808 0.442793)
(0.0166347 0.0271179 0.477017)
(-0.0161708 0.050601 0.0308474)
(-0.0358591 -0.0890093 0.164444)
(0.0519456 -0.0212036 0.270695)
(-0.0314748 -0.0129772 0.00715865)
(0.00170046 0.00680637 -0.0376115)
(-0.0216694 -0.00411508 0.0110683)
(-0.0185952 0.0429038 7.66705e-05)
(0.012884 -0.0286977 0.00781878)
(-0.0239269 0.0406546 -0.0113713)
(0.0199539 0.0190039 0.0500336)
(0.120404 0.0492672 0.105528)
(0.0631299 0.0391326 0.168555)
(-0.00845644 -0.0234554 0.0385345)
(-0.00712946 0.0218853 0.0802728)
(0.0320303 -0.00585983 0.0549788)
(-0.0546247 -0.000733091 -0.0150775)
(0.0378668 0.0975551 -0.0963472)
(0.000188331 -0.0113396 -0.0101366)
(0.192003 0.122903 -0.116162)
(-0.105016 -0.00302487 -0.020627)
(-0.0228193 -0.0333462 -0.0461533)
(0.174437 0.0864456 -0.0748372)
(0.024829 0.0127511 0.00872432)
(-0.091518 -0.0563338 -0.0951661)
(0.1886 0.0771519 -0.0886358)
(0.228586 0.0507728 -0.0118033)
(0.156188 0.0304436 -0.052907)
(0.164494 0.0542627 -0.0188291)
(0.017551 -0.00378491 -0.0108191)
(-0.0226827 -0.0157082 -0.0121487)
(-0.037889 0.00412552 0.0457723)
(-0.054401 0.00253967 0.04403)
(0.0023418 0.0140986 -0.00436896)
(-0.0317151 -0.00821532 0.0648902)